MP_id,Formula,Ref_index (1),Ref_index (2),Ref_index (3),GGA direct band gap (eV),Effective_frequency (eV),Average_optical_gap (eV),effective_mass_valence,effective_mass_conduction,effective_mass_transition
mp-558941,LiYSiO4,1.80426197654332,1.73769330147757,1.78740230222522,5.1083,14.3405584138262,11.1010572649772,4.53437564836847,0.590102346790324,1.91515881851473
mp-541545,BaVAsO6,1.85436148849139,1.96889984763065,2.02486582271517,2.7049,10.6725839046292,7.57205054138869,7.00413942245383,14.6281343130886,0.211134132477599
mp-6031,Li16Nb2N8O,2.20058537439473,2.20205086453515,2.18275420512709,3.4623,12.2387648403779,7.83014260891574,5.65321678450333,1.19550790333586,1.01335500562407
mp-8054,NaSc(GeO3)2,1.84962942775033,1.87472341960088,1.87398231848649,3.581,14.2512019319162,10.5251707454697,6.43355248558748,0.512685579703568,2.10594833780714
mp-616850,Sr2VClO4,1.82069188771741,1.79118758369971,1.82165885664688,3.7753,11.7069912824087,8.89426626907706,8.52643149098073,13.5698174569399,0.190975317993968
mp-551816,YBi2IO4,2.62478911914843,2.63844750753165,2.4109678678904,1.8307,13.3588179033612,7.54804459356898,2.8557934152741,0.302334858836075,3.65775619266093
mp-17784,CaTiGeO5,2.08723228942061,2.21135289133146,2.08817200680404,2.9576,12.571493361566,8.25469741813972,4.6773379049649,1.58176170271687,0.84600330747403
mp-565819,Ca5V3O12F,1.8676177526464,1.88445429501487,1.88815252297054,3.8732,11.6231560970461,8.52477530089423,11.9911714123976,24.2796523344396,0.12458143931238
mp-622278,TlV2SbO8,2.06681366600862,2.04723551893767,2.03764013996584,2.806,11.4109556858217,7.73964959454046,15.3950021908431,7.74643186529229,0.19404783780967
mp-7251,Ba2YNbO6,2.20808079788761,2.20808094960307,2.20808077977233,2.8565,12.9055702102815,8.21605675801807,2.32778532210237,0.740770444073954,1.77953874761233
mp-6488,KTiAsO5,1.9147571360358,2.02894575334088,1.90622247127663,3.0609,11.294459450064,8.0110342597782,11.7044609645704,12.7648735296245,0.163777494874134
mp-6224,LiScSiO4,1.82055530539448,1.86178518094865,1.88013256979395,4.6171,12.7244681119665,9.45440710533549,16.9104692386386,5.59846708089466,0.237755287916724
mp-561251,Rb2Y(NO3)5,1.52239759589931,1.52239757619355,1.49791864265053,3.3392,10.6960396937675,9.81822189098096,106.247544465722,52.3308502827154,0.02852116915043
mp-559052,LiNb3(Bi2O7)2,2.54642370197891,2.5216399286972,2.54011516274361,2.7208,12.726831166809,7.24009728810618,2.68465890493232,3.67125221374825,0.644873423283118
mp-556039,Na3Y(BO3)2,1.64906050222543,1.67422218358257,1.67558766705893,3.6611,13.4423178873153,11.099001323835,39.1032499267689,0.55965261177839,1.81239603832593
mp-540632,RbTa(GeO3)3,1.76310086778948,1.76310094435911,1.85707905324464,3.5896,14.0475357405357,10.7684013699256,10.4174567684728,0.581774264124165,1.81487246609631
mp-561018,Na3Sc2(BO3)3,1.72929137510137,1.7356835166585,1.70635336902999,3.7232,12.1630477139877,9.70027096945317,2.71642385716938,0.630325255790007,1.95461358186999
mp-775198,Ti3P6WO24,1.97550773726655,2.00770301090575,2.01497502714053,2.5544,11.1718979643157,7.74824418121265,124.045093753705,4456.74318402844,0.008285963553327
mp-540631,KTa(GeO3)3,1.7597868734594,1.75978665184164,1.85783813342282,3.6365,14.1019095444037,10.8214970676016,9.65387863280618,0.606944704604353,1.75118185665368
mp-541238,KTi2(PO4)3,1.98821034098508,1.98541635431967,2.00231674067816,2.5811,10.8683113422018,7.56266125040512,3.13693545603606,9.95856791562864,0.419198504113447
mp-540633,RbNb(GeO3)3,1.79980814255298,1.79980837591117,1.93365176802857,3.2493,12.9457649742704,9.66665812229543,10.4712886876744,2.3115249305207,0.528114074555418
mp-566745,Ba5Li2(WO5)3,2.11105633273961,2.1110562664221,2.06026163387081,2.2925,13.1278873671667,8.74298947634837,598.770703472775,19.0816171064007,0.054076548199952
mp-17897,RbYP2O7,1.57796921072624,1.5992242369349,1.59163344083994,5.0487,13.514905327371,11.7367247342189,20.7658147969693,0.543458898594031,1.88822162376417
mp-765925,Li2VOF5,1.66728436986616,1.6655976584998,1.70436843728109,2.8755,9.7357930411306,7.97507654941142,7.22682402654232,99.3128288396659,0.148442563286377
mp-565879,K3VSO3,1.70665667021812,1.73852145226914,1.74027696071631,3.1833,10.8271634202965,8.61127165923218,27.0431432931641,9.53704864079816,0.14183219133548
mp-17256,Rb2Hf3OF12,1.58991170824043,1.59246273425785,1.56404855743036,6.2836,13.4568227365486,11.7473475541589,65.0554098701002,565.568766227441,0.017139643379412
mp-566232,Na3LiWO5,1.79230248284155,1.84751776716761,1.81094821295365,3.8307,12.6986458649032,9.61845726454125,31.9629229126278,7.45888225704159,0.16535459512796
mp-25164,SrVPO6,1.84459112271528,1.94387732380415,1.97357115655859,2.5167,10.7071226438663,7.69972550259949,5.98326211793682,14.89148994891,0.234285356187248
mp-22264,CsSr2Nb3O10,2.26037078153121,2.26037078153121,2.04265712247553,1.7966,12.4323145252864,7.97640627301051,35.0993403197874,75585.6424707362,0.028503793976264
mp-17037,Rb2Ti(SiO3)3,1.76514537928183,1.76514548125643,1.87059221371201,3.1444,12.1026602450866,9.24832382829011,5.34891906635984,44.9165791096211,0.209217154887982
mp-555252,Rb2Ti(GeO3)3,1.85541108921985,1.85541124821426,2.00163307326793,3.0729,12.6969058683255,9.20331621855981,43.4920854955119,7.50500320989496,0.156237135772955
mp-13182,Li2TiGeO5,1.84351614584739,1.95888574449864,1.95888574449864,3.6816,12.2144046992527,8.78469348964475,2.09140971444707,5.07843521338207,0.67505743560857
mp-624572,Cs2Te(MoO4)3,2.18285816763252,2.18285796148077,1.97911170225432,2.6108,11.8212342292076,7.80600158161175,46.1236910251738,31.5621480740624,0.053364353671599
mp-553243,YBi2BrO4,2.47622284740287,2.47622158338062,2.29565944556243,1.6899,13.5232784902941,7.99619321046677,1.06107663455703,0.325604430295028,4.01365028038363
mp-706386,ZrH6O3F4,1.54104666379704,1.53026300353893,1.57611434547117,5.4219,13.1987137478395,11.7988295099917,68.2224819059338,54.4434467731091,0.033025608180313
mp-17921,NbSeOF7,1.56283947352247,1.54531170318483,1.47072581061189,4.5147,10.2946619116743,9.36214164062771,31.8468106213955,208.155685820541,0.036204415094768
mp-6668,LiTiPO5,1.93745369751125,1.87492755326706,2.03827070822303,3.1012,11.6369893346667,8.25305969064668,4.75093483399365,13.1457179681229,0.286555289021613
mp-558062,K6Ti2S6O,1.85327126454818,1.88870587175452,1.86328249065996,2.4882,9.32318265031443,6.87764940248812,59.5655560121294,6.58557390145224,0.168635280361388
mp-555580,SrZr4(PO4)6,1.75776411955643,1.75715413666531,1.76068123463618,4.3718,12.8888309403392,10.0769537731391,23.8203291797907,30.9423923083419,0.074299069663123
mp-18177,Ba3NbAs3O,2.59163246815593,2.97844415593108,2.87528669179266,1.0792,9.05525114862053,4.75075377003816,1.05677779963969,1.17458551976813,1.79763686500784
mp-19566,Na3Sc2V3O12,2.01551524677934,2.01551520212575,2.01551518227971,3.2084,11.1828603423561,7.70081900024473,4.8332982379511,2.44428514534483,0.616015624422832
mp-558114,Sr4NbAlO8,2.00568212586142,1.97204383825512,1.9786584899876,2.9681,13.0328905846039,9.09543985957481,60.916233341181,578.546893513325,0.018144453806386
mp-18986,Ba2MgWO6,2.08984093413829,2.08984097720377,2.0898406757454,2.8644,12.9321415985582,8.62787911037896,2.31598906810288,1.24257644147763,1.23656042921142
mp-556661,Y2SiCO7,1.90470859976008,1.89588974890419,1.82140118315543,4.8095,14.9940296146922,11.0302578744065,14.6544486491436,3.93564720706688,0.322326479310971
mp-23137,Ba2YBiO6,2.20196794935803,2.20196813101371,2.20196822865363,1.8151,12.7480783127408,8.13469750540641,2.29044025486038,0.475294225550444,2.54055720481835
mp-25799,MgPb2WO6,2.40314631264931,2.4349156309819,2.36262944618914,2.8636,15.7796312061457,9.3798139374811,0.87820564058029,2.56078316570557,1.5291910019827
mp-567457,Ba3WCl2O5,1.86994147234613,1.8069883563543,1.88239512058441,3.9418,12.4574985932478,9.26097478389804,190.689075507925,20.3193879185876,0.054458219764429
mp-560378,Ca3Ta4(O6F)2,2.35451574214317,2.35451574214317,2.35451574214317,3.8826,14.834512576604,8.95643786663837,4.55809435594231,3.00771553734753,0.551868180177528
mp-560591,NaTi2Al5O12,2.11836841224561,1.90990851613369,1.89134188606925,2.7252,11.6933303553183,8.20593815741155,12.3117698206824,40.9999647397404,0.105613355836282
mp-583297,Ba6Nb4S13O3,2.20086613404814,2.25147648222228,2.24203200690802,2.289,10.344314016274,6.52773158995129,3.78175330369793,8.80668409759626,0.377977729153396
mp-14526,Na4Hf2(GeO4)3,1.81425359583494,1.81958267742909,1.79303272976262,3.6565,14.248501257608,10.8379172072102,4.45306408565358,0.465049702798135,2.37487226820151
mp-605771,TlIn(MoO4)2,1.96079975775192,1.94059092546575,1.92561093681979,3.6457,12.8421542086489,9.14125090051372,17.3089369219785,7.25469327597324,0.195615426026869
mp-566151,Pb3WCl2O5,2.30981333011999,2.17633884310325,2.33897334743259,3.211,15.3460083153942,9.52975347884596,6.48283093477046,8.3161378378701,0.274501725610973
mp-559249,Na2Te4MoO12,2.06214683279344,2.20446221559817,2.24113441587068,2.678,12.6752896163934,8.19100079312895,5.115059801157,9.81425868903776,0.297393701517743
mp-6661,BaTi(SiO3)3,1.80679471717182,1.80679491365235,1.87831649888936,3.0883,11.8249038972787,8.89268349339924,5.4425716088885,97.8392765548494,0.193957517179824
mp-565395,Na4MoS3O14,1.60587115610188,1.61052652570518,1.58926970650044,2.7804,11.1437305500407,9.59611639511816,141.278792377937,102.999419105065,0.01678699581717
mp-6748,Cs2Ti(Si2O5)3,1.670039897727,1.67667819810481,1.68948015377512,3.5097,12.4443569895174,10.1959977358971,102.749959965886,162.868110712917,0.015872301263316
mp-559348,BaZr(BO3)2,1.9164385145368,1.9215676933171,1.76277975084807,4.1141,13.3010897889495,9.81944957863512,4.44234465618835,3.08886841794553,0.548849504758733
mp-20222,Sr2NbInO6,2.19275805550909,2.19020274175703,2.18660557257133,3.5067,14.5144706800389,9.30492332641344,4.0017071768508,0.865817986873594,1.40487050747832
mp-6492,Ba2YSbO6,2.06781921356776,2.06781925467387,2.06781939250023,3.5379,14.3233719008936,9.6442714049239,2.27254351779124,0.420633976415403,2.81739940498158
mp-541097,Zr3Pb(O2F3)2,2.07872599926012,2.07872609066226,2.07872623257609,3.3612,14.8561542203919,9.95739306367159,0.860699318283002,1.61309564119507,1.7817719744625
mp-559493,TiPCl7O,1.62642135991876,1.66212585564391,1.61969698091958,2.664,7.61788955226802,6.41225573115678,105.476658719216,247.974370801876,0.013513445368278
mp-559118,CsTa(PO4)2,1.74779749112991,1.75109506595159,1.63273343507138,3.4627,12.0406181880304,9.67758112516056,14.0177928005804,10.7318322239446,0.164518640707076
mp-560016,NaNb2PO8,2.18180780775943,2.1594744754222,2.05089124041232,2.0169,11.7768956323878,7.72734448518559,11.0422194120931,5426.29768953072,0.090745791944895
mp-6109,CaTiSiO5,2.06162145167342,2.23395716163046,2.03531654786178,3.0691,11.8194805597726,7.81959876452545,5.62612758638773,6.24385875059054,0.337899518239248
mp-565765,MgV2PbO7,2.16312608971368,2.0989355278331,2.13784059742536,2.5792,11.7577280893976,7.70680424949705,7.0195092843001,83.6485895244863,0.15441487497141
mp-505814,CsBa2Nb3O10,2.29641622969356,2.29641622969356,2.04151735481235,1.7362,12.3227431636764,7.83499133788197,901.407568250111,61385.3530057637,0.001125666617112
mp-17394,NaYGeO4,1.78536553120082,1.79935165267938,1.83567581832959,3.7734,14.248555155292,10.8503958067677,44.0282940031001,0.465903060256199,2.1690819131236
mp-555305,NaNb(OF)2,1.9116067901114,1.986774091335,1.66647639047182,3.2075,11.6959298740792,8.68669316085564,291.330833009489,130.399662801886,0.011101255225111
mp-6019,Sr2YNbO6,2.16441168912016,2.16797970470205,2.15690789325831,3.2441,13.424733370176,8.69619060320833,7.94889705628627,1.10263889521635,1.03271884030805
mp-541649,Na2W(OF2)2,1.53075867791105,1.49386138580526,1.51087737424319,4.3509,11.7856566136143,10.838793584931,2193.45361483151,10272.3345457887,0.000553250904586
mp-15733,CaTaAlO5,1.9547335265964,1.96089227904034,2.03087051039696,3.9664,13.5743700237984,9.48740754336705,4.20180419467777,2.40014666082889,0.654634209675419
mp-17455,K7Ta(SO4)6,1.54536577547194,1.5497043524492,1.54425141087842,3.6845,12.7377028499757,11.4094743968645,83.1410032986197,191.888331709637,0.017239123885442
mp-19403,Ba2CaMoO6,2.17054720519965,2.17054707159278,2.17054698866438,2.0591,11.451124655874,7.39617383758563,2.61390734531869,0.958408550600172,1.42596539812575
mp-556902,KLi4NbO5,1.90393045828885,1.82716464501697,1.84566874871955,3.7838,12.2862472374233,9.10683349550676,28.5092232668908,9.27647930361248,0.142875886016422
mp-17164,NaNbGeO5,1.9842473636117,2.07904707017422,2.01025159370662,3.0775,12.6689083915166,8.68989328087645,4.9716464691837,1.63000072948344,0.814637267246386
mp-622602,NaMoAsO6,2.00105238062376,1.88077225096501,1.78963700229963,2.7391,11.2871783515341,8.23605316088545,14.2224503106798,7.60275329523617,0.201842669160758
mp-6138,Na2TiSiO5,1.69049290740896,1.84118738590074,1.84118738590074,3.1765,11.6063214863264,8.91373084642255,58.0058342521155,9.48431834877974,0.122676848264328
mp-17035,K3Sc(PO4)2,1.7154193743805,1.71541942976055,1.65056474274716,4.3386,13.4108507401384,10.8873655284801,8.15982625517843,7.99148505964498,0.247684816712407
mp-19116,Sr2CaMoO6,2.131725833685,2.13796758862243,2.12572973823109,2.6011,12.3997851323288,8.13251573395802,12.8254801336536,1.30620795852043,0.843544669729891
mp-12355,Sr2YTaO6,2.09708801436659,2.09664958207136,2.08736697540226,3.871,14.627856434713,9.74364860403082,8.18352119318635,0.923079437831221,1.20552716946778
mp-24656,YH3(SO4)3,1.57337022025968,1.56558059837237,1.51403813690409,5.288,13.4763861926217,12.0305995668007,67.2286691856841,62.63680186538,0.030839661715782
mp-615884,CsLiCrO4,1.66513775105845,1.66485190632681,1.67315876114611,3.0878,9.18078327212819,7.57360362388767,23.6783382243314,14.7294428595537,0.110123923944119
mp-40161,NaHf2(PO4)3,1.69861185678188,1.69871657141502,1.69873975640767,5.0467,13.9435228843744,11.2865227821012,3.38059280244322,8.81801494447579,0.409210316008111
mp-557463,Na3ScSi2O7,1.70495232191402,1.69450844789868,1.68228793314343,3.7748,12.9731446442512,10.531289426767,14.63556970103,0.561320580166695,1.84983984670893
mp-557845,Na2TiS2O,1.97010431449708,2.08270833051582,2.03927368933157,2.4931,8.57861963896994,5.86849215157638,4.4820122735479,11.0683652411715,0.313461648694955
mp-769319,LiNb(OF)2,1.7580524281147,1.98830362118063,2.07468424585526,3.2178,12.167032419589,8.66873652264186,24.8345912557305,19.9949837926102,0.090278960361438
mp-16831,CaTi4(PO4)6,1.97835854687668,1.98078209301276,1.96710935893254,2.7223,10.6561026413542,7.47054708489745,18.9807506275442,43.0620337623044,0.07590726777163
mp-540950,Ba3SrTa2O9,2.01827507045001,2.01827505063111,1.92331148543339,4.0264,12.8999858083065,8.99799677851692,19.6565247483351,1.70488760881725,0.637422621123917
mp-6694,Cs2Zr(SiO3)3,1.72656063027048,1.72656074031585,1.77787740859712,4.7958,13.5955066517189,10.7191153191066,5.27786388206165,11.521165086876,0.276267370368827
mp-554495,CaZr(PO4)2,1.8363611300613,1.76952051415066,1.79415607738011,4.3673,13.5222327339627,10.3346587678557,10.6045839308844,14.0581060424769,0.165432180831552
mp-562977,RbNbS2O9,1.78936826841207,1.5805708209378,1.62756574982395,2.78,11.5912304832316,9.5733277480771,157.390948865979,828.323516605754,0.007560863278581
mp-558011,Cd2H2SO6,1.72955645470161,1.73997876136463,1.75721152966853,2.8877,15.1083413430491,11.9215110769801,7.89493319395082,0.42098910260879,2.50202191356147
mp-22186,In6Ge2PtO9,2.72009942832978,2.72009926840915,2.72009933642137,1.5538,19.9416971265576,10.7413638143789,2.57985245165332,0.142112984777301,7.42427375094826
mp-555691,SrZn(SeO3)2,1.79677577343418,1.78150333707237,1.77608676589856,4.3319,12.7631122402023,9.83501310776545,6.27168133850314,6.8260157282102,0.305945220483419
mp-722862,CdH3NO5,1.65358679542381,1.70410170764541,1.5308249834648,3.2609,12.8609227914022,10.8721277422103,11.8143444663689,4.76705747545336,0.294415879020479
mp-722980,Hg4HN3O10,2.0711931609582,1.84963164981571,1.9266334316626,2.0688,12.893433416116,9.14865933994033,56.6560607117434,3.12768689095392,0.3373754610622
mp-558350,Zn2TeBr2O3,1.94513835754684,1.9401335469498,1.9797329062275,3.3016,12.9754515144443,9.18195595743639,16.1826372269695,7.11968565986193,0.202250264228409
mp-558576,ReSb(OF4)2,1.47645728011345,1.52700751471628,1.49403573250441,3.7885,9.71183987357152,9.02168903310296,39.6999003702628,81.5344132373646,0.037453739966123
mp-554432,ReSbOF10,1.44067375557411,1.45976236079713,1.45858143756185,2.0497,7.67792641905109,7.4127009623189,641.127143139181,414.246931176075,0.003973772113967
mp-14901,NaZnAsO4,1.70107805523439,1.73121867480685,1.73775936481436,2.7708,13.4729267053501,10.7475824154474,20.5247530819038,0.425099797079692,2.40111045438556
mp-552537,Sr2CuBrO2,1.95628206044016,1.9577864515825,1.90523832367502,2.6007,10.9205031010288,7.78271661853935,178.64355401565,0.602617103918679,1.66502624431946
mp-6798,Ba2NaReO6,2.09476542600836,2.09476557399629,2.09476549522852,1.9406,10.430832911307,6.94495398175148,3.0648970750855,1.11768311156559,1.22098321148877
mp-774432,K2Li3NiO4,1.91263853615888,1.90004924936171,1.9133172894217,2.0309,18.6778321283514,7.87935969771187,18.9708159610075,8.94318949109886,0.164529476274319
mp-11147,Na5CuSO2,1.85585403251441,1.85585403251441,1.85287565421968,1.6242,9.53212557688893,7.07993947471312,8.70987395142854,0.530173312887342,2.00098788721349
mp-23116,CuBiSeO,3.91799351837136,3.91799351837136,3.72365049514586,0.3537,1.35938042355852,0.566091371517835,1.02429580274332,0.720612126987805,2.36398957339571
mp-555490,KRe2O4F7,1.52523454261959,1.5486276505345,1.5614355125973,3.0256,9.38077430458631,8.41095396859079,82.1957102040105,28.1190314919841,0.047729187566997
mp-554842,Cs5Si3AgO9,1.73520685222252,1.69897851663875,1.70552155952365,2.6818,11.8637765207131,9.52027382720516,44.4548679699583,1.00059814593577,1.02189693595642
mp-557807,CsK2AuO2,1.9263671456916,1.79384499887811,1.91270607517203,2.2302,9.98136055923503,7.32946454337761,19.0070472175356,2.568031428078,0.442015398841976
mp-40963,Na2ZnP2O7,1.61170449214488,1.61145515606237,1.52320037421214,4.042,14.3187835829058,12.4999941213571,3.6182418583089,0.527940301815597,2.17053087926581
mp-551092,KLiZnO2,1.88949621063394,1.8264484142729,1.83671354326144,2.1721,14.0592525925489,10.4635361279624,4.35937276653563,0.387275764643316,2.81153017128552
mp-557874,KAg(PO3)2,1.60475821854883,1.58250835700795,1.56388023518427,2.9041,12.3078679415461,10.7324981970193,32.3323059955568,0.580587585127848,1.75332183066199
mp-556647,Ba5Re3ClO15,1.95759235797446,1.95759249334482,1.88892823050533,2.5604,10.7993237440989,7.71466405114673,19.9327591217353,27.5463492782614,0.086471120454186
mp-14921,Zn4B6SeO12,1.87375267044506,1.87375282254624,1.87375273448766,2.0207,11.4060309472366,8.391802006782,4.22027196020392,0.679046767505085,1.70960417230364
mp-14469,KHg(PO3)3,1.68517016944877,1.66123032418747,1.65868040622659,3.0777,13.891517970752,11.4550766567027,23.6168682845576,0.986678683979346,1.05584378600397
mp-558992,In7GeIrO8,2.8804272252567,2.88042724087938,2.88042704819962,0.442,2.34015755267909,1.2065159824025,5.21338887072947,0.103713272396387,9.83378129637962
mp-556331,Sr4Pt4PbO11,2.94974055808303,2.64300810630615,2.68659411709324,0.5805,7.45103388486493,3.96895482855444,25.0692734257225,0.88462545868497,1.17031137806893
mp-6281,NaCa3RuO6,2.34584032065271,2.34518453005302,2.34648225861608,1.3202,18.5281026591705,6.13795192148564,3.37071488040529,2.67254698077246,0.670847871875064
mp-557451,CsReOF6,1.53543673265947,1.53193244955514,1.53190129577594,2.9741,9.32892018057338,8.44010026840979,1635.84037164787,210.291842289085,0.00536660279738
mp-667283,Sr5Re3ClO15,1.88593539390935,1.95048450903872,1.96071883756953,2.3447,10.7152206068265,7.66296431986347,43.062205573504,61.1253553413843,0.039582042827573
mp-551456,Ba2CuClO2,1.93111052506065,1.93379114435867,1.84908170993063,2.3927,10.266863397677,7.44007505218161,53.471968701557,0.826016265447089,1.22933130088244