MP_id,Formula,Ref_index (1),Ref_index (2),Ref_index (3),GGA direct band gap (eV),Effective_frequency (eV),Average_optical_gap (eV),effective_mass_valence,effective_mass_conduction,effective_mass_transition
mp-23290,PtCl2,1.90906483651027,1.8761213366944,1.9185318553519,1.8797,7.79771296619464,5.66012485545311,26.2330995684363,8.47514834488934,0.15611181558318
mp-27648,Te2Br,4.13567765910256,2.95434574144598,2.41511211748026,0.7801,8.04649581291442,3.86283397440491,34.4316307639766,1.90737602939008,0.553323531770685
mp-7670,K2Se3,2.40790587025324,2.74760888228292,2.60573557369124,0.8678,9.54147407314929,5.34361378096663,4.45999927280427,2.81236717095165,0.579787631758861
mp-30520,Tl2S5,2.53699660622556,2.37812388449383,2.45876551749043,1.7987,11.5664238961741,6.7454402105996,4.52774963746707,1.18643328733639,1.063722661614
mp-776532,HfO2,2.11046651951648,2.11046651951648,2.24635212066141,3.9025,13.9134481494641,9.03879639968883,2.03462401642662,0.914014754749281,1.58556554062466
mp-554278,TiO2,2.50832567662176,2.47431558819808,2.49356121440802,2.8356,10.9086531707194,6.29236782174676,7.40141692844686,4.64570473845878,0.35036185972323
mp-636289,WO3,2.49513169391918,2.60975085017708,2.50262148156688,1.3999,14.5444827226635,8.27471047335185,3.07438437344662,0.767281313069104,1.62857132354295
mp-715590,WO3,2.50523106119974,2.50523084764658,2.62251135364559,1.8977,13.6368378087082,7.73789810434439,2.67498481883399,0.393669868912722,2.91403338667308
mp-34688,TiO2,2.65354810960721,2.65354810960721,2.52666213609972,2.3537,10.7671064506122,5.98630007865981,1.98063978600689,1.77322944295461,1.06883017661486
mp-10390,Ta2O5,2.34035242645205,2.37918628526646,2.3958087757582,1.4187,10.2310319479362,6.14051087158583,3.6687417676434,2.31519553386725,0.704501974045972
mp-775847,V2O5,1.72429301744222,1.91334108041405,2.07090849628853,2.5856,9.37702807668581,6.80120193218442,14.824902021977,5.53904361077301,0.247990653247128
mp-352,HfO2,2.22173801110752,2.21399742998948,2.14347186825487,4.093,14.8502667676357,9.50844757870708,6.46897322962879,2.41192963055606,0.5691898316383
mp-510568,V2O5,2.67224235802069,2.58833518308584,1.98965475397115,1.9531,10.984185552806,6.49331650549651,5.55097210785821,56.817536145827,0.197748826330913
mp-25643,V2O5,2.28219856936245,2.28686136658959,1.81341442312561,2.4522,10.4061341150079,6.83680126010524,7.08661946624978,20.3874316676977,0.190160832897433
mp-556048,Nb2O5,2.44575236072665,2.27562489439714,2.27872935426742,1.875,11.5690725136682,7.03645607561051,292.184311647187,0.621901982293066,1.61139293063921
mp-776882,V2O5,2.15923555454239,2.64975565477272,2.24516991116485,2.0919,10.2326242177714,6.18470392054035,2.64631993525264,3.65542482855365,0.65144927248511
mp-1595,Nb2O5,2.28124891452029,2.28446606015498,2.29268346048904,2.7084,12.0481706838056,7.45185052386857,5.5368253069142,1.18315511328469,1.025806629461
mp-18773,WO3,2.59083553704206,2.59083553704206,2.45829960745227,1.3668,13.4050989855422,7.60091085661307,334.398555262695,1088.7057925804,0.003908965337959
mp-361,Cu2O,2.9362827810005,2.9362827810005,2.9362827810005,0.504700000000001,12.1143656533488,6.15576908319359,1.65887953606905,0.953063544168676,1.65206450815322
mp-216,Sc2O3,2.14855216599458,2.14855221719185,2.14855233354927,3.8235,12.2187568429846,7.9604900460413,3.46603522498695,1.17471898142622,1.13978151327543
mp-19033,WO3,2.5596245154319,2.58524982545208,2.48076861677989,1.5693,13.6111396748382,7.72917045405623,57.458100753663,1.50839349946669,0.680360966953337
mp-1986,ZnO,2.31965054049096,2.31964971277993,2.31964990030823,0.6311,4.91318668362039,3.0027066454831,1.64403723817367,0.143242395706095,7.58943210990062
mp-25620,V2O5,2.31483165262617,1.85342013585695,2.43084942149858,2.3767,10.6920558071845,6.82863411253444,10.8786123304949,7.93035028609894,0.218021323681858
mp-566278,WO3,2.65219220645865,2.69474507514162,2.83951822674199,1.2861,14.3420059095137,7.70613030154467,16.6641793300703,4.94083226767588,0.262404006991441
mp-27485,Tc2O7,1.73435581412812,1.6923553793456,1.75952008797854,2.6664,8.11623140496222,6.45419207683249,13.8532274546714,6.21361988295469,0.233122128615838
mp-8484,ZnO2,2.0476583382,2.0476583382,2.0476583382,2.2498,14.3827725576974,9.76743722603687,1.23833725787919,2.04798306955123,1.29581973942883
mp-556859,HgO,2.16004540924491,2.27184460736204,2.64681248674703,1.4862,14.0405224327395,8.462302625368,4.71504878857722,2.11841085983569,0.684138843560231
mp-581967,Nb2O5,2.41930677467741,2.37781470262088,2.38697903216597,1.931,11.7331974298283,6.9875074907776,12619.0614374596,149.908313269036,0.006749989321055
mp-2652,Y2O3,2.01406356155907,2.0140636782386,2.01406354169872,4.0703,14.2567539688616,9.82384392663691,4.37176917097451,0.533022114738718,2.10483511435298
mp-2310,CdO2,2.12061528807089,2.12061528807089,2.12061528807089,1.2868,13.1010820831797,8.63127411650872,1.29646166440864,2.71458416352434,1.13971072043496
mp-776404,ZrO2,2.37058711504134,2.35272010660002,2.27210984989723,3.4629,13.7226156033063,8.3508379111031,13.7202854500404,2.67814297392976,0.446277840922144
mp-557266,HgO2,2.9670222092192,2.23723393948867,2.26304789609058,0.6623,7.3962588641895,4.27037639282607,1.49994994377475,0.707990492596118,2.07913726026564
mp-32662,WO3,2.39885984584344,2.39885972495267,2.44253976426178,1.4893,13.2108843889647,7.81828690803444,2.39622602510418,1.79674414226731,0.973885173439804
mp-554791,RuO4,1.61921764750759,1.61921764750759,1.61921764750759,2.4251,6.54921520338305,5.57422237480148,15.6619464932561,4.45097748141528,0.288518774605583
mp-680944,Nb2O5,2.44173121985201,2.31389160938882,2.29210769816778,1.9458,11.6090142055648,7.02181940087923,6561.83041068811,0.985264317339107,1.01510846707248
mp-1716,Rh2O3,4.71869537584278,4.85092047553864,4.27486165741068,0.5649,7.31427430162006,2.68141079974735,3.10772219924316,1.55260118186226,0.965859489440723
mp-755089,ZrO2,2.28316086599258,2.20593547503094,2.30287052827553,4.1549,13.7821680983425,8.59317301347895,2.40639568662929,3.09012314354081,0.739170954316456
mp-7826,HgO,2.25024069823652,2.25024075378614,2.57066630662169,1.3984,13.8847168766887,8.37566414026666,3.26203341248462,1.90310688049125,0.832013815114802
mp-1285,PtO2,4.63959887490287,4.48583563229863,4.79944966949337,0.9392,11.2473357662743,4.10660546931773,1.3708798256117,1.98728378454347,1.23265793880875
mp-775757,HfO2,2.23284106241353,2.20820752195078,2.15563643270381,4.0165,14.8494420780866,9.48672746602751,9.9408810480372,1.69556980921801,0.690366942725639
mp-19048,BaWO4,1.83622677248754,1.83633596327034,1.83686501681533,4.9378,13.208169591216,9.90296222376196,6.2129382335519,8.26046559347978,0.282012992508946
mp-3858,NaTaO3,2.28578883101655,2.29666595960318,2.30067616365276,2.6175,14.0372905859467,8.65642554332132,4.34846649339203,0.493479802192823,2.25639151624106
mp-19172,KV3O8,2.22725601806348,1.75482643016339,2.2131597524806,2.2473,10.0981856556619,6.80720038650049,14.330228397313,49.8166368358531,0.089856173630643
mp-505392,Ba3V4O13,1.87838695161567,1.84474479806829,1.83359841023055,2.9877,10.4189406027193,7.74890175969141,70.2372753978978,39.7752353951115,0.039378726019448
mp-556791,K5V3O10,1.70212818553715,1.70212818553715,1.66471860985573,3.0582,10.4581865894045,8.51162901868288,96.0197722034828,132.150505307493,0.017981651284284
mp-3151,Li3TaO4,1.91535329639208,1.91084375080748,2.00074909721334,4.5892,13.5179695774974,9.62239019636498,5.17462384119941,2.8955922989409,0.538603248313711
mp-16025,Y2(SO4)3,1.58774886238347,1.58307536459892,1.575626383379,5.7187,12.9110915446811,11.270870038708,13.9006418524441,5.27309603466518,0.261581033462994
mp-24926,Tl2CrO4,2.17137152970191,2.06840345194065,2.06170644855178,2.685,12.2972118380464,8.16834044463531,6.64144936898903,8.89527985707653,0.262988715972737
mp-505318,V2Se3O11,2.21116771412754,2.10007002502298,2.13175392341611,2.1733,10.3609658862913,6.75252013461204,17.7530211031962,24.0894380231399,0.097840409715079
mp-3564,BaSc2O4,2.14310641359686,2.12878799085301,2.12389667827792,3.8719,12.5587277017577,8.23635471816581,17.3587967662308,3.39742997624854,0.351947815093878
mp-559760,ScIO,2.23797905262762,2.34777759807014,2.02581890602294,2.0185,9.41087474988223,6.00086329731304,15.1833257696043,24.2095383916174,0.107167756601788
mp-27556,CsNbO3,2.00549128395014,1.8302623937567,1.84043197646639,3.3463,11.2267812923604,8.18567329449779,68.6493460913941,18.9478122119615,0.067343322771096
mp-28150,BaNb2O6,2.41900171765131,2.17728055381019,2.265343556726,3.0472,12.3253382452573,7.62032415730521,4.32066657085094,3.18542250720565,0.545375867719512
mp-3378,SrHfO3,2.09328876889931,2.08501652751243,2.08388186325425,4.2118,14.80374178102,9.88655216448274,4.29421022713323,0.727553737854464,1.60734061124769
mp-18352,HfTe3O8,2.12835721390936,2.12835726794164,2.12835721156013,3.8521,12.9367581452219,8.49645588677613,19.8388815449369,1.13470645122466,0.931691265791063
mp-19146,CrPbO4,2.36068641077124,2.11556769213372,2.184358425259,2.1231,11.503692106579,7.2900741233513,1.95757000402131,1.85694671138847,1.04935582985749
mp-654301,Nb5P7O30,1.96919441142819,1.95375248944179,1.93071659494603,2.5795,11.5318032212614,8.17465567925714,44.6185432405245,76.9213143224316,0.035412504277954
mp-775149,Ti(SO4)2,1.96804386129984,1.97478814813134,1.97617883047056,2.254,9.89153624017161,6.94214664036586,33.118199689685,19.1956251743236,0.082290081536048
mp-32046,K2Mo2O7,1.77141443485143,1.87960284634813,1.70637222785651,3.416,11.4156923437947,8.7918937098917,57.1186166512655,21.0533817709625,0.065005734240642
mp-18779,Na2CrO4,1.6728748877307,1.67699791890151,1.68300661614861,2.8742,9.07395051123958,7.43960058941523,4.73573573465,5.56529063499142,0.390845566415314
mp-15590,Sr2Nb2O7,2.18788137932567,2.28325664348097,2.10220005708305,2.7521,13.1873359093713,8.45003946556018,32.8148321957882,3.01346145429365,0.362318322208811
mp-18780,K2WO4,1.60085916932127,1.59711101993568,1.59670617209304,4.5493,12.1972237541193,10.5296455118172,4.71056345369559,0.647728078193018,1.75614655839839
mp-12894,Y2SO2,2.27188820587634,2.27188848978113,2.25588696303693,3.3709,14.0602119948196,8.75831572609341,2.7859734897123,0.726359061264615,1.73567053302611
mp-5652,Y2Si2O7,1.75566213720066,1.81867177082617,1.81289797286003,4.804,14.3570669490166,10.9978757813214,4.75280796180119,0.550733141657985,2.02616337244373
mp-19260,Li2WO4,2.06363679217056,1.89985228373155,1.89028231489373,3.9852,13.1905819482611,9.35037362515206,4.00070174926203,24.8271384687115,0.290234652520595
mp-769152,Sc(ClO4)3,1.66021412775581,1.66021406451096,1.65363968263948,4.0778,11.4097856797126,9.46987660786641,16.3658979212459,9.4713385695334,0.166684363439886
mp-24901,CrPb2O5,2.19214953413311,2.31495359132748,2.25026675085422,2.09,12.3466757481777,7.73081546426561,48.821817741987,2.22466837452174,0.469987844618434
mp-19034,Mg3V2O8,1.91922497117977,1.95607874074639,1.94425943999251,3.3237,11.1535721651779,7.94850010898397,4.41104179930536,11.289747361297,0.315279755425501
mp-17196,TiAs2O7,2.07281237935323,2.01019353545871,1.99966189642149,2.7184,10.4497586816595,7.15825301811393,39.9106120946985,4.39039078873528,0.252826149740014
mp-19247,ScVO4,2.21461759678731,2.29798907525689,2.24289357304354,2.6445,11.8705608731186,7.4344063711861,4.03202285818379,1.19106730652976,1.08759758248552
mp-5024,ZrP2O7,1.72021397215579,1.72021397215579,1.72021397215579,4.5502,12.8850697361557,10.2975024405082,11.8400187444324,1.27000054433612,0.871860563062359
mp-2908,Al2ZnO4,1.85704493483599,1.85704495906804,1.85704478136635,3.8487,17.579323948845,13.0425334018945,1.75187858565325,0.349968224224251,3.42821808826953
mp-3324,Nb2SnO6,2.60273739551266,2.61280506161482,2.67497385781618,1.7783,13.1680576538471,7.28005781804479,2.70407327178043,2.81633239118972,0.72488418908347
mp-28870,PRhO4,2.47987216202771,2.40209674034998,2.4122616048016,1.0116,10.1830796804837,5.99055276750731,3.52868528768376,8.42645861571529,0.402065481384947
mp-25726,V2Pb3O8,2.23649207018491,2.25452496770384,2.34344689293357,3.0444,13.6136706790362,8.44444207235603,5.29663019940755,3.40265466478261,0.4826874699652
mp-560029,Y3BrO4,2.02135520629107,1.99797307539416,2.01707051934235,4.2046,14.273240307205,9.8435559475747,3.64970213692855,0.488073581481921,2.3228663579656
mp-17621,CsReO4,1.59241498674184,1.59980433178561,1.59301766782418,4.2779,10.0204386989652,8.66918626602968,30.701511826761,7.71694138700021,0.162156705389152
mp-541740,TaPO5,1.98419019753652,1.91273320669664,1.89403749170918,2.9698,13.1038423560795,9.38028707117043,14.1073748034727,14.716444333579,0.138836106929271
mp-3297,Li10Zn4O9,1.86079280684336,1.87507418253252,1.87507418253252,2.329,14.7218481448515,10.8499382674423,3.10564758755764,0.511240623412522,2.27802013021386
mp-9631,AlAgO2,2.42695548784892,2.42695537041784,2.3799671657399,2.3685,16.3680182697984,9.69357730572193,3.06603051405843,0.689746037662804,1.77596359536484
mp-7206,TcAgO4,2.27413594800311,2.27385686224969,2.25867430808428,1.6956,9.52718634277015,5.92957251666429,10.8422378215529,1.38234210292809,0.815641809225453
mp-30986,Zn3S2O9,1.72894679790906,1.70034009539268,1.7017789016203,3.3649,15.2979988836941,12.2970427678883,4.15168424791624,0.464692164071424,2.39282836249339
mp-770128,Cs6Ti2O7,1.79109176202673,1.78186203730816,1.7848297453819,3.333,10.3149957805288,7.94361536615334,6.66463219992232,0.487690474853488,2.20052668168553
mp-5860,K2HgO2,1.6829321049882,1.68530012757372,1.86445581604928,2.0773,11.1834845605404,8.81457566100238,190.92928157131,1.06869827984161,0.940955338246014
mp-25796,V2Pb2O7,2.17198617629118,2.19057157153105,2.25311576267177,2.8757,12.8694766011579,8.20198081194347,13.8622194718853,6.60699815055524,0.223493186495308
mp-7664,Na6ZnO4,1.88742670056349,1.88742690454492,1.87124454307822,1.5336,12.2979729840362,9.01098640465068,7.10884011572353,0.302830210419959,3.44285037245672
mp-752515,YTa3O9,2.28221334015907,2.37738207699141,2.26452696826512,3.4436,13.791379495777,8.46337648592488,11.8713008482891,1.27114520512106,0.870928952591226
mp-753712,YIO,2.21861094606513,2.21861094606513,1.98460079613004,3.7225,11.6440757308558,7.6100652706766,2.25714041695369,1.99544937771305,0.944178703646109
mp-10914,K3Cu5O4,2.0354388642256,2.048726011452,2.01433822135211,1.5705,10.3802342578582,7.09437319491032,9.15746810478593,1.80051718323906,0.664596466490962
mp-17481,Mg4Ta2O9,1.96137112755338,1.96137135443546,1.94111346912024,4.2228,13.8259963519471,9.78556684677339,4.16406537371273,1.44791598694256,0.930797734314615
mp-17546,Cs2RuO4,1.74961432321526,1.7376042501099,1.72059048585072,1.494,8.62987512699519,6.10737084612494,18.3870935197295,17.4307166108025,0.111755962378202
mp-7041,CaHgO2,1.9413891134958,1.92449878409938,2.22403212431835,2.7479,13.1236947755526,8.98051392991374,1.94663185832677,0.810985666412397,1.74677523162607
mp-8188,KScO2,2.02289762222412,2.03030751119135,1.85517811004766,4.098,13.563675714175,9.53472252729677,3.8129961337083,0.875202176955561,1.40485408904747
mp-8603,RbAgO,1.78855828252814,1.9750462273071,1.94552768420293,1.4423,10.2586839751909,7.43996332127593,166.172633602842,0.935697208664423,1.07473963261665
mp-770239,Ba2Ta2O7,2.20410858171733,2.0760821563705,2.19856161387394,2.9093,13.6492648312211,8.85384402422654,3.6849632352071,3.04997243456312,0.599244943795259
mp-28371,K2Zn3O4,1.97982781069466,1.94466707176318,1.97612518834207,1.4083,14.6695050483809,10.3242677825075,2.84964111248654,0.307365918761275,3.60437252684653
mp-769317,Ca4Ta2O9,2.07966164074832,2.0938746142021,2.04630275619225,3.9314,13.9567119748715,9.37586734178503,16.7729463606952,1.47514953102252,0.737517195959143
mp-30940,Cd2Te2O7,2.29703300368105,2.18925719822957,2.19193128313823,1.7336,14.2286429352023,8.99704390103634,10.6406189858602,1.14160863348193,0.969936430505145
mp-17559,Y2TiO5,2.13968537640467,2.08291090784028,2.12010944764651,3.4209,12.2295601158267,8.07795446323376,21.7258913335875,155.436084993191,0.052461543536287
mp-19341,Tl2WO4,1.96744802472645,1.96744796881646,1.9936728066561,3.5146,14.3258072149927,10.0397025357406,2.57016373648616,1.1589118947104,1.25195863402619
mp-761307,TiV2O7,2.33233912199749,2.33233912199749,2.33233912199749,2.0627,10.5118938976701,6.39577206675949,5.32928829667862,0.890046463051655,1.31117916687602
mp-3180,Ta2Te2O9,2.20058162084482,2.15635942968699,2.20683314276363,3.2089,12.7964445715145,8.20963140999795,13.3304519748807,6.33114115254123,0.232965619617089
mp-16585,HgB4O7,1.7423939967757,1.74440951614006,1.78637084895606,2.5838,14.6057342270636,11.4244663114938,7.49066360826886,0.663522288750261,1.64060789795878
mp-28952,PdSO4,2.10521926411479,2.07036275082412,2.35697035832019,1.1197,8.38566110891762,5.40155588731099,7.44195007991612,7.53709132345371,0.267050558932041
mp-27384,AgIO3,2.06199248786216,2.26049694757591,2.06434770569301,2.5358,11.1341155289892,7.31080770437791,67.8559920820612,4.23719550305296,0.250742251403275
mp-3074,KAgO,1.79885420754435,2.00727522776524,1.97717052375358,1.6015,10.6485902181633,7.63191822987206,8.54808292272911,0.982229316377323,1.13507748900257
mp-18914,K2MoO4,1.62517443063814,1.6173925342971,1.61655379743453,4.4767,11.6923543387033,9.94845447705509,4.72536072443108,185.675234040542,0.217009803346938
mp-505403,K2WO8,1.60669454782171,1.60706685299648,1.60546772001184,2.9426,10.0336021415043,8.61365090170368,336.058734185349,32.3676486395597,0.03387071651352
mp-8697,ScBO3,1.99347349618699,2.00177083853272,1.9353530427289,4.1444,12.7292787757705,8.91810152196854,2.9215907174115,1.70799600872672,0.927760753059605
mp-19077,CrAsO4,2.11295865316858,2.15869551581505,2.15676299115132,2.046,21.6640061693214,8.07800075971029,4.2551191911682,10.0320186618261,0.334691878491041
mp-705599,Cr2P2O7,1.78267703468688,1.73383755294434,1.76000206249879,2.6129,16.4743725808535,10.1976813391506,174.915339835565,22.7695933258437,0.049635271070771
mp-566835,Mn(IO3)2,1.86735682182062,2.04755873664225,2.04631394463313,2.602,20.177606914034,8.446712937248,11.0475550229282,2.51010899778435,0.488906840252662
mp-566397,MoP2PbO8,1.97427974968088,2.25899018368828,2.22593043467221,1.0583,19.6740417169049,8.63292459587087,0.18880397794759,0.188375017346825,10.6050581384238
mp-565454,K2MoCl5O,1.67665104598423,1.70513902658991,1.67487241603652,2.7623,13.3522442229525,8.21566117972411,91.1330544093081,143.447882748406,0.017944139965241
mp-24910,NaCr(GeO3)2,1.94692531186998,1.9775989633897,1.97706961435353,2.7519,19.3524155787159,9.9409598392429,0.081981594425032,0.081807781842306,24.4216358576368
mp-25064,RbMoP2O7,1.65494458215373,1.66739174761062,1.67535687541491,3.8594,16.1835761258551,11.3488611695353,6.50985629607378,13.9175011323358,0.225465201004199
mp-633442,Mn2H2SO6,1.71646182305346,1.70915349515484,1.70200200939952,2.881,16.7626485576038,11.4058959028989,4.99044778905002,11.8567776775746,0.284722766715707
mp-25776,NiH20S2(NO7)2,1.53102556477676,1.54384537114311,1.54486410081923,5.1038,15.862296911466,13.4318861207785,2212.08218876766,291.95966164081,0.003877193468374
mp-19717,TePb,5.1166903228552,5.11669045868518,5.11669048409223,0.8674,17.4705831217815,5.96054307716046,0.16009635566278,0.157427599050343,12.5983647213404
mp-558149,BF3,1.27618906122878,1.27473485870592,1.27251628673271,8.1941,12.7521846066382,14.920622454802,97.852733829526,0.674257198198794,1.49333300807389
mp-721182,PH11(NO2)2,1.49085406395126,1.48978977711622,1.50336112760707,5.3504,14.1905074598996,13.2298713817548,66.3012914783287,1.21530822217008,0.837919192121453
mp-27702,InClO,1.96543390629143,1.84445282401042,1.76006422326005,2.5782,15.4620594776079,11.473971993889,29.3239042071875,0.398449593941106,2.54382961379782
mp-29048,Sr(BiO2)2,2.28069229621183,2.03404526744121,2.01819563719675,2.6331,11.4080955991542,7.5453443742117,6.36386417476623,20.5524879354714,0.205793141645261
mp-9488,SmOF,1.8910497349356,1.89479119957847,1.82814255735159,4.6984,14.8194755610233,10.9163649450196,167.929377112743,51.4115659571839,0.025405760341788