MP_id,Formula,Ref_index (1),Ref_index (2),Ref_index (3),GGA direct band gap (eV),Effective_frequency (eV),Average_optical_gap (eV),effective_mass_valence,effective_mass_conduction,effective_mass_transition
mp-18388,Ga7Te10,3.15518194404063,3.15394770248335,3.15646029754851,0.8997,12.883497555994,6.20403564626957,3.64702486622045,1.34965015340048,1.01512885161728
mp-18466,Nd2SiSeO4,2.27919262678695,2.3029825531254,2.29723354276399,2.626,15.1492373685579,9.34629410889747,39.153749239962,1.34207020500167,0.770657841265599
mp-17704,Tm2SiO5,1.90323629904434,1.90581348247933,1.88267065096368,4.8696,14.5893351074536,10.6105469075614,225.617442432481,0.495904812410245,2.02094830421041
mp-643074,Cs2P2H2O7,1.55438524504062,1.59545648953521,1.5576136074136,5.2237,13.8556523781502,12.2073395607045,64.3161087161539,0.476182168314426,2.11558484270214
mp-30005,Rb6Br4O,1.63140603161813,1.63129900386165,1.6315188567712,1.5309,9.82880135777014,8.29852954557536,103.045441483023,0.392844320755102,2.55524208336731
mp-560464,UTl2(TeO4)2,2.23232603129561,2.13280207239209,2.11229447284227,1.8389,9.65245197242285,6.26232949304861,4.55413633705564,674.132416331624,0.221063990427352
mp-9751,Al2Ge2O7,1.76367463269164,1.76168041085777,1.78412019213953,3.4013,15.7881127604926,12.2663519132119,6.72780912464263,0.395225183361619,2.67883993726159
mp-558514,RbZrCdF7,1.52342321762536,1.53426325641984,1.51253253188155,5.1017,12.6383296367129,11.518987063502,151.038045919581,0.658962988136035,1.52415676162068
mp-22904,CaCl2,1.67451431764557,1.64305607329756,1.64305607329756,5.3548,10.7656271644258,8.96064907815418,2.49738245184668,1.17422373107831,1.25204570722065
mp-24136,Cs(BH)6,1.55879118550241,1.55879108606638,1.55879123361661,5.4088,12.255137823774,10.8781925275386,44.95604116695,0.578817221076654,1.74990505693201
mp-4104,HoPO4,1.7913244987997,1.83768748159201,1.80503622124322,5.9066,15.7192248939268,11.9414449129626,4.43282145493216,0.50499375002366,2.20581248409639
mp-5915,TlNO3,1.85149834728525,1.79669081925634,1.85862699054974,2.8355,12.5924880851256,9.44559254811203,6.61407053470189,3.33982691398553,0.450609537681427
mp-28329,TlI3,2.08243472646804,2.48643227134784,2.83436346998757,1.7598,9.5712596526961,5.56420841731319,3.54929646551862,1.93584751306731,0.79831558956725
mp-3203,NdTaO4,2.20237011194758,2.1382160204245,2.11458928163367,4.2435,14.24392182116,9.26823821151867,2.84169850172038,1.7240346316104,0.931936968022711
mp-558349,Ba5P3ClO12,1.74862745031639,1.74862729590957,1.74405658738471,5.0838,13.9624459392482,10.9869252986435,28.0593878732273,0.562547148217157,1.81326747481846
mp-7249,Ba3Nb2ZnO9,2.29328146985929,2.29328149820296,2.26061797524482,2.9037,13.313634448382,8.24567008741045,2.09758214557215,1.22505657051933,1.29302820886076
mp-543039,TePbO3,2.24083325350192,2.18384601792342,2.15507662044764,3.0439,13.9366926871018,8.92287087834627,32.9322888624123,2.02905143922985,0.523206463457808
mp-755026,La2Pt2O7,2.82168170068844,2.82168170068844,2.82168170068844,1.3312,10.8030417660348,5.65766270358021,2.01999111471823,1.26258996504686,1.28707445133113
mp-559545,SeO2,1.91231595454308,2.14584844758431,1.77318816824386,3.601,11.4846733602609,8.16944259863324,5.6977077880703,2.99954467428022,0.508893108939963
mp-546082,TmBi2ClO4,2.38725450465592,2.38725599171936,2.24586985152747,1.6028,13.5544621188075,8.22456003963505,2.00788281475666,0.30524421357209,3.77410241143026
mp-558805,Na3Nd(BO3)2,1.71624900291304,1.70774761601356,1.67014476917422,3.7653,13.7313106846913,11.119038515016,21.0182129348028,0.538126116493419,1.90587822598988
mp-5884,TmPO4,1.78848478327326,1.83316028486327,1.8017301795774,5.9394,15.8816081349836,12.0875896223393,4.32048846851647,0.508209360168714,2.1991483094423
mp-28128,SCl2,1.5212161910787,1.69914616793259,1.70811187279991,2.1297,7.27185456875554,6.09431458022308,28.8337451438016,9.63631703624692,0.138455672329789
mp-15549,K2LiAlF6,1.41671263141118,1.41676948371992,1.41579920539602,7.2179,14.5480713839864,14.5178128366755,17.8339136864132,0.580637140052881,1.7783189555015
mp-558534,Tm3B5O12,1.89969464651559,1.85254086054802,1.90246598392718,5.4737,16.7407375797701,12.2489678892373,9.87456995062144,1.3501961148478,0.841903381805399
mp-24007,Rb2HBrO,1.57518686193099,1.55037564157852,1.57535362061983,3.3456,11.0091373184711,9.71461726036392,140.071891444578,0.419233932790994,2.39244229225967
mp-5985,HoTaO4,2.18585159377301,2.1461503698483,2.12527737719103,4.3725,13.9880722735655,9.09924044603449,3.26734512485617,2.26079354849165,0.748381447640704
mp-31232,In2PO5,2.05330915597238,2.2061164339173,2.01095227193487,2.3567,18.4282819455446,12.293264551637,3.96831244020668,1.57261079086286,0.887881533099769
mp-867975,CsB2H5O6,1.53527330140272,1.53076990106286,1.51007031293248,5.0467,14.0748894830818,12.808978827026,43.6260554741948,0.580926641430005,1.74430982427997
mp-28641,ThB2O5,1.83927059727491,1.82188499637052,1.82138430047039,4.855,12.0600463596981,9.08425042821347,3.15917663186057,14.1913640602318,0.387003563021651
mp-570229,ThBr4,2.07304186161303,2.14245167506761,2.09520479189983,2.8488,7.46492147636593,4.95228304430916,1.18292647441044,28.9183292325664,0.879941222713028
mp-615993,SiO2,1.42151519161773,1.39829705356194,1.40502044824978,5.4763,12.8098643680253,12.8822141075018,51.3316646273384,0.625224143922273,1.6189075500297
mp-756440,Er2Pt2O7,2.6737371299363,2.6737371299363,2.6737371299363,1.9557,13.1489667147883,7.17727935023006,1.65890834502141,1.23816575471207,1.41045236558058
mp-565245,Dy2Hf2(MoO4)7,1.8973102223938,1.85195009921974,1.88264391747351,3.2256,11.5453037802291,8.47931238404285,87.6973761722362,5.14948646904115,0.205596971004503
mp-12673,Lu2SO2,2.25149238284299,2.25149254939918,2.23403609863404,3.1514,15.0704597917117,9.459977913268,3.03702040662352,0.519566333084517,2.25395215520712
mp-545529,NdBi2ClO4,2.42534959541918,2.42535388345701,2.24042391970805,1.5287,13.2906560762122,7.99895079751199,28.5431200112741,0.36113172626909,2.80410740042897
mp-23054,NaBiO3,2.18990518516213,2.23055314888482,1.95131387275343,1.1714,9.45800798672458,6.22281938710579,13.7881139227216,0.408482435474648,2.5206119136841
mp-6459,CaMg(CO3)2,1.69411453567933,1.71016872851774,1.57040255985527,5.422,13.9791006283023,11.6008426813947,88.4540589232578,2.1578091101219,0.474738327185869
mp-9655,Na4SnO4,1.72420175443595,1.73235752660933,1.75172861197162,2.1274,12.2315150037779,9.68556585351723,24.3477654310228,0.402535268012316,2.52532590427166
mp-643385,SrHIO,1.90041073718289,1.92886183019935,1.85270670101881,3.7424,12.7247098931816,9.26909512740652,4.83832423147703,0.316289740807747,3.36834116449727
mp-18334,NaHoGeO4,1.78664450577052,1.79480207265314,1.83318401967724,3.7367,14.442015472845,11.0089709094299,36.3609369853906,0.429999943001335,2.35308374517275
mp-12315,DyBO3,1.88388706667889,1.86669316439526,1.90499455904735,5.3595,15.2842672699046,11.1816864464517,5.4804823560512,0.789965367639917,1.44834396990695
mp-22855,HgCl2,1.79832980290046,1.6036233441803,1.84894767097395,2.8686,11.1842640399296,8.78487674758876,3.6957568007292,0.752669734215856,1.59918454896049
mp-7012,KRb2YF6,1.42196151143412,1.4205632932045,1.41936451977637,6.427,12.279143823961,12.2055857276272,72.8794930516641,0.558593391689173,1.8039322194981
mp-13356,Ba2SrTeO6,1.98429378369232,1.98473051823163,1.9825738296467,3.1787,13.9180808806476,9.7201788920998,3.9879070618034,0.481169608308493,2.32902734851203
mp-643579,SbH3OF6,1.42131074716263,1.42131074716263,1.42131074716263,4.7684,12.6899909072183,12.6059899089486,19.9509027960531,0.901482546889931,1.15940686143275
mp-29537,Cl2O,1.7647120756656,1.72876142078657,1.72776384671054,1.0959,6.57176694845395,5.19101486892693,27.823588794502,1.34392017912322,0.780032537732808
mp-754768,Tb2Pt2O7,2.69538878086261,2.69538878086261,2.69538878086261,1.8142,12.9568904656302,7.02841894003338,1.68292673893971,1.18022685579736,1.44149766457715
mp-17685,Li3GaGeO5,1.78692728167657,1.75782170028703,1.74573195823414,3.3027,15.8186188309794,12.3333369108895,34.5901951024658,0.47729717717574,2.12404069166466
mp-566132,KEr(WO4)2,2.04269335682084,2.0599834902251,2.25295675058355,3.315,14.0178617037595,9.24300868752636,7.89232174357436,12.3213750018875,0.207865200584278
mp-17975,KSrPO4,1.67538337105273,1.66280050216495,1.6694030250362,5.089,15.2664172902768,12.5822785245297,4.92988207138966,0.463857104887023,2.35868094168237
mp-23262,Bi2O3,2.61147881668606,2.62562256426928,2.48465162950463,2.4554,12.7928909305148,7.19327249013035,1.69849853318282,0.872213668995578,1.73526335030707
mp-28328,RbI3,1.69151780363081,2.09009250034538,2.27818560701274,1.9443,8.7123796790399,5.98798455851116,5.58941664026729,4.60402967821207,0.396110579710541
mp-23083,KAs4BrO6,2.08536290127162,2.08536316741233,1.71345540939938,3.0216,12.7139117629316,8.97043205802516,2.31124325049597,0.616034577601352,2.05595307397534
mp-23568,XeN2(OF4)2,1.95805566315159,1.81808949999718,1.77732944610728,2.1924,7.70125330612526,5.73083018833582,175.194461201529,5.04121703878076,0.204072741093744
mp-17439,KSm(PO3)4,1.62359289848164,1.62725109002883,1.62087942488021,5.3169,14.6185602293487,12.4036148284681,50.2690117624176,0.547220725391423,1.8473091372259
mp-4412,La4Se3O4,2.34375065226658,2.27114701637741,3.75446453039578,1.5096,11.2476629555152,5.94187524724953,16.6103296824123,1.96404514894178,0.569356765924039
mp-24123,Rb(BH)6,1.58857217966323,1.58857219540064,1.58857217336827,5.6432,13.2753399235629,11.5369845971048,22.174674402314,0.585943338911009,1.75174615056719
mp-557758,LaMg(BO2)5,1.7954654995293,1.78021761029375,1.8141150018673,4.7697,12.8087864333686,9.80734033242824,19.0364904991335,1528.68641551102,0.053184847391435
mp-560740,La2SnS3O2,2.44858894263615,2.50591625558397,2.5918532867429,1.6741,11.4339795841517,6.54670612983046,1.8235825120984,0.566411952533288,2.31387059493081
mp-560739,K3Li3TeO6,1.92182291327791,1.75380368912829,1.73437929531,2.6949,13.5131487802541,10.309381070663,35.0522660054907,0.565028997354412,1.79834949842223
mp-556046,SrGa2B2O7,1.72342348249059,1.80204872853095,1.80019527274127,4.0986,17.0239143634305,13.1871628154387,5.30150616455705,0.43698649209187,2.47702589642224
mp-8075,NaBe4SbO7,1.82589334025841,1.8258929924834,1.82232421100089,3.3859,16.5386803524718,12.4760550290424,7.47848303865128,0.699571337484784,1.56316374375947
mp-561457,CsAlSiO4,1.60768352918104,1.60741112351508,1.60896752297863,4.4582,13.6613998976947,11.7152635694535,48.051207850999,0.434099035561002,2.3244329275254
mp-27205,TlCl2,1.88356966953707,1.88316884266919,1.87860793674465,2.3213,11.0470997452802,8.09544622028571,7.71678485302671,1.41823018152864,0.834691807512697
mp-557747,K2SrP2O7,1.57246623811133,1.57772325520035,1.57204997376038,4.7677,14.2273024379476,12.4908252552097,20.0561493325815,0.505620983646126,2.02762603876022
mp-562366,Cs2U3(TeO7)2,2.07970241380828,1.91005773211178,1.81332342123516,1.9321,7.66337937924696,5.47533722590238,14.159779190567,709.421704054348,0.072032169031244
mp-669426,SiO2,1.52893319016888,1.52228659259681,1.52693546687475,5.6183,14.4993656643984,13.1883996227029,5.20471321609982,0.531639014737808,2.0731091171172
mp-17337,RbAsOF4,1.42516751997791,1.4435270659049,1.47109439194091,3.7709,12.4779684110928,12.1148505258866,1410.11418915727,0.969468829719065,1.03220184104079
mp-18987,LiMoP2O7,1.70266797996556,1.66538940191176,1.68867581850395,2.1802,16.6776364917211,9.81776386705374,21.0581713238171,3.98441307132771,0.298465498261533
mp-470,GeO2,2.16771466987701,2.09943430475926,2.09943430475926,1.2307,18.7626614978187,12.3533598622285,1.52501557300997,0.220670336836337,5.18737769189496
mp-2414,SO3,1.43051425718166,1.46251775031963,1.45926031947696,5.1448,11.8232886857918,11.4372429601123,78.8212685943506,1.09352651933795,0.927159495104864
mp-19093,Ba2UNiO6,2.21072905621652,2.21072913085253,2.21072888658922,0.9697,10.985395051302,4.59945802382463,2.44493663705815,402.566020839765,0.411492619191395
mp-29412,Ta3Br7,2.15088088931024,2.13405688068524,2.15226516721337,1.247,8.10783239664971,5.28813795255283,23.0385523697393,17.0396979809125,0.102091991172635
mp-947,Au2S,2.63863878353972,2.63863878353972,2.63863878353972,1.9021,13.7277575917048,7.57051708218947,1.65107776811278,0.451493086537953,2.82053832879621
mp-29590,Sn2OF5,1.74387844759891,1.75228101342222,1.77855979376573,2.5113,15.2582407168468,11.9314055595549,5.04243600104475,0.514713412472687,2.1411455646058
mp-722832,PH3NF5,1.41464708673224,1.41048392759365,1.40539299130172,7.0748,14.9145791304532,14.9717264974235,146.969107147339,0.629641707686786,1.5950089789253
mp-27814,CS14,1.76880972690677,1.7620773989811,1.77405382387345,2.6279,7.87494398724946,6.12345023071063,11.8857921412143,1.31046668218793,0.847220996278434
mp-772087,Er3Sb5O12,2.2320319531763,2.2320319531763,2.2320319531763,3.1339,13.5670631138808,8.559596771159,5.49007865824474,2.93959018094753,0.522330226797756
mp-755311,NaLuO2,1.93221535549224,1.9322153244398,1.73881478599648,4.061,14.4177041690859,10.6394162838195,2.85883672401295,0.38791974258519,2.92764543817607
mp-560570,Rb2NaAl6F21,1.37925382363073,1.37991789610832,1.37547990170704,7.0042,14.3739257049854,14.8905633630473,25.8645052203749,0.55727281496029,1.83311624951954
mp-760109,Bi2(SO4)3,1.74133648098235,1.73474185975897,1.73861917911888,4.3137,12.8696787106618,10.1784084834742,6.86118547137892,1.95019910841583,0.658515563917512
mp-554651,K3Pu(H3O4)2,1.79946495381266,1.68884713044136,1.68438558827841,0.7255,5.65195764496116,4.93231998806083,17027.9475542156,103.232947902731,0.009745556821704
mp-23958,YH12(ClO2)3,1.60915670150548,1.61073832760011,1.61136911041512,5.399,13.5518493378115,11.6025054233255,18.5884246465526,0.514717076137447,1.99661181100853
mp-3032,RbBF4,1.34633906576315,1.34594404787123,1.35320782217662,7.764,13.7670525221664,14.717858671144,70.208604309157,0.594016993187947,1.69769679163029
mp-504598,Rb2PbO2,1.88525081885674,1.91755659368896,1.94251096007204,1.899,11.4266389637382,8.23903905913822,9.22546634150126,1.06706753196011,1.04554341374984
mp-571102,TlI,2.34246981624097,2.34246976928199,2.34246947045207,2.2086,15.2889121733542,9.26942079072971,0.475604680832295,0.340332815198463,5.0408868012229
mp-22766,CaIn2O4,2.00467799908115,2.00489868322566,2.00537201286943,2.0006,16.086563102757,11.1291767936252,4.95969236563003,0.315360264349319,3.37260194896776
mp-1266,Na2Se,1.97889064629656,1.97889069935659,1.97889065134989,2.0162,11.9220481185864,8.34490288229562,2.22497968166801,0.245478335886463,4.5231215433415
mp-755617,NaHoO2,1.9318038642678,1.93990021392854,1.88507131695329,4.0048,14.1512853658134,10.1850115793465,4.58462140800565,0.409494998364018,2.66015278779892
mp-13031,MgSe,2.15684750735883,2.15684745867667,2.15684773454224,2.5476,14.1918141979973,9.21569303045748,1.2397510286126,0.2024100033458,5.74708085404722
mp-18040,KPrF4,1.56121608049623,1.53946931765463,1.52634278587741,7.1937,14.0119431129822,12.5891302299897,22.3891264617135,0.605928549850324,1.69502413984993
mp-866311,Bi3BrO4,2.63579179754396,2.62491151279429,2.41880703240254,1.5866,12.1846043864361,6.88084358124832,674.536932624188,0.426694117907539,2.34508171404509
mp-560786,Nd10S19,3.05962731880862,3.05962731880862,2.83405283825126,0.5022,6.70479744052249,3.3655111223301,26.8345241394995,0.412547930063889,2.46122620130077
mp-758033,Y13Ho19O48,2.00424153484554,2.00480866418718,2.00431608036258,4.0342,14.142179792611,9.78627786539449,5.37838164818598,0.490769505348337,2.22354595004319
mp-24046,NaAlH24(SO10)2,1.46170708419984,1.46170708419984,1.46170708419984,5.3109,14.3275440306189,13.7289539161405,139.905936675188,0.577780894817031,1.73790755305356
mp-676361,Li3ErCl6,1.75020821047097,1.75020824760941,1.72385258940549,5.2147,11.8435536465826,9.34977856705861,8.72791264817531,4.27092705631211,0.348716135469916
mp-757886,NdHS3O11,1.60043953650239,1.61285992882209,1.60436086651352,5.5001,13.9151086417428,11.9500832042058,5.77732330254422,1.47166301652035,0.852593922349192
mp-569787,Al(BH4)3,1.43947951010079,1.44047564713882,1.44161158430418,6.2616,11.2246557202771,10.956945219411,35.1505580637522,1.04331300329175,0.986934180850721
mp-15254,Li3AlF6,1.39213599910354,1.39459284380783,1.39393771022955,7.6948,14.9217046910962,15.2218908630381,387.06006155301,0.69287247315558,1.44585061341388
mp-23211,PrCl3,1.90644372589384,1.90644351083372,1.99521041496881,4.3867,12.0555963207909,8.60672826330077,3.02199030714685,1.76178755511997,0.898513071924411
mp-14941,Al2Pb3F12,1.66614558487546,1.67372518652257,1.66068746307064,5.264,15.5672184478575,12.8489614665623,38.553386085529,2.7871224692006,0.384731047409495
mp-773785,K2TeO4,1.59663588836027,1.59448509870742,1.58422967084953,2.6698,10.8247896062952,9.38639711027768,25.5019678568022,0.709604727689022,1.44844791608211
mp-697181,CsLi2(HO)3,1.62575252421763,1.62540991445235,1.61837414092045,4.1415,12.9805640587507,11.0191144210035,6.83260057538469,0.51369071944172,2.0930538025087
mp-700,GeSe,3.9729264944119,3.77870136157913,3.62094801260664,0.9307,13.9745827532663,5.8878280618411,0.744224118576287,0.604902984898892,2.99683891312817
mp-505782,Cs2SO4,1.58006319493873,1.57163911570055,1.57693650157513,5.0151,13.1694065391684,11.5445750280844,30.277791725775,0.441654585865281,2.29724038358382
mp-7951,ThSe2,3.40991714268837,3.37639625784652,3.37511038338008,0.6305,8.33504297011679,3.8096750216471,0.558330081647561,0.924156698607638,2.87312278447198
mp-560790,Cs2NaBiF6,1.55070652607126,1.55070644868718,1.55070643578983,5.1659,12.5020410125803,11.1631655399464,6.77405296902362,3.38779054682072,0.4427997456628
mp-28933,Br2O3,1.82434218007478,1.65945608558949,1.98556609811912,1.7587,8.64806340391623,6.52911578492498,32.2403112819554,14.7757734512733,0.098695422475488
mp-752602,BiBr3,2.12086500513352,2.11721635644542,1.75142792886262,2.918,9.30477418784346,6.46161944454021,7.83296060432519,1.63415995776822,0.739600848749098
mp-5588,BaSiF6,1.47980651775832,1.48335872262916,1.47754703140035,7.3825,14.8478957299693,14.0071084133472,4.94006556858364,0.515150150998881,2.14360807394816
mp-15081,Sm2Se3,3.10105401597586,3.21219368656375,3.15326046656473,0.3125,1.70078437476946,0.818952176796367,1.01353648365092,0.430347898131621,3.31034567440879
mp-752579,Tm2TiO5,2.07687692220796,2.12173155936372,2.12247504343396,3.3886,11.9607542820219,7.92362668004662,20.2006111231284,119.130688700682,0.05789759552881
mp-644285,KAlH2CO5,1.48443426260647,1.6291094469065,1.58553853627088,5.0845,14.7110616489508,12.9869469048274,6.39423413836402,0.663733753942856,1.66301910862745
mp-690733,H2SO4,1.54303540788927,1.45284976511682,1.43428323214071,6.2275,14.1388497674675,13.3772333889617,10.0738935287811,0.605518988593228,1.75074235741017
mp-8232,BaZrF6,1.5796973064483,1.5946529058074,1.59271190740824,6.2844,12.9192622814044,11.2240351938733,10.5937444939239,20.1208039601265,0.144095132644643
mp-29369,Sb7F29,1.55227985556729,1.56163023472268,1.4720370613541,3.7166,12.0910890998212,10.9760670146889,51.8870091661435,2.12561006824473,0.489725819228725
mp-28319,PtI2,2.38839315649664,2.87760231964043,2.91077339379073,1.2569,9.053848082439,4.86917844841603,3.52676404941251,1.46631799733082,0.965526353985124
mp-23979,K3H(SeO4)2,1.57524022612426,1.55828829489283,1.57137885629151,3.5508,12.423736832377,10.9524263731845,32.9862755160804,0.662969752923127,1.5386800782204
mp-29836,Na3HoCl6,1.6473329566302,1.64634624851518,1.64960863843519,5.2294,11.4532648671628,9.56821655349945,11.1520961344236,0.42803097486335,2.42594876019918
mp-770559,Dy2WO6,2.16808369764638,2.16750157554729,2.18818969698699,3.6731,14.2533873747058,9.19164327230148,6.26786675467147,6.00351886373127,0.326112892626399
mp-642648,KP(HO)2,1.51316196092818,1.51221876393596,1.51958248542157,5.1341,12.6401456774465,11.5959898393415,12.6415509281675,3.05706608440644,0.406215236301103
mp-23311,EuBr2,1.9861051432389,2.02072894025894,2.02072894025894,1.0458,2.97032872848494,3.86216144038906,1155.48014898528,0.321852430933064,3.10787941361481