MP_id,Formula,Ref_index (1),Ref_index (2),Ref_index (3),GGA direct band gap (eV),Effective_frequency (eV),Average_optical_gap (eV),effective_mass_valence,effective_mass_conduction,effective_mass_transition
mp-556517,K2PbO2,1.91232792167034,1.91210578943739,1.95761803730963,1.9344,12.4500234095027,8.92477492846373,8.53988004049903,1.11662755572615,1.01265141816223
mp-3395,SrSeO3,1.89637532413813,1.85645813849922,1.76898669299687,3.7052,13.6537108442471,10.2152589216832,5.21397453213166,2.44683924764098,0.6004827860155
mp-28627,K4Br2O,1.63559383099839,1.63584413682967,1.64887579580756,0.991,8.95009623270418,7.51398541391072,109.545049659639,0.417477440636221,2.40446767600024
mp-3054,Li2CO3,1.59053940535908,1.5894530065403,1.43355789558706,5.1877,13.64480447278,12.3005607186823,17.6629498626549,3.11793881934967,0.377340387103342
mp-505187,K6Pb2O5,1.86524700509075,1.91327961364773,1.9041222150902,2.1478,11.4554340301826,8.34360426826311,19.1979084813291,1.85227734967094,0.591964960896959
mp-18049,Ge5P6O25,1.66010246069332,1.66325917403152,1.63958814340675,3.5719,14.9771791012346,12.4599549291608,7.15920701478607,0.689770804322454,1.58943719902403
mp-4066,KGaO2,1.77020782678193,1.7697800767327,1.77024814079835,3.0763,16.1664538857055,12.5585365117666,13.7963882241741,0.386873568093035,2.65730652197027
mp-27684,Tl4O3,2.92560730618448,2.86536378667701,2.78562418139992,1.1185,16.3948354416132,8.50102394575071,1.03334304041596,0.362074148869893,3.72959806789459
mp-19395,MnO2,3.15391301084859,2.82364835806444,2.8402897985945,1.1333,21.0049679601857,5.88058822177123,7.12236112711743,3.08304349969334,0.464757691652544
mp-16597,K3ErSi2O7,1.66482399370024,1.66482413485629,1.65813592928927,3.7375,13.7529373698344,11.3818046865101,4.13654918530978,0.555274058240936,2.04265991112226
mp-561083,Na3Bi(PO4)2,1.82586171163098,1.73142915823894,1.81622752979906,4.214,14.558907659738,11.1800248130895,14.3786255666012,6.18186973421904,0.231311033419949
mp-16605,Sr2TmTaO6,2.09311841279943,2.08841354142325,2.0834809190391,3.913,14.2455168918999,9.51003408506801,6.3158767162804,0.957005421084203,1.20325730649854
mp-23622,Sm3Si2ClO8,1.90307309370922,1.89579136510324,1.90101044710438,4.6232,14.493569716188,10.526984502359,22.7188267413005,1.90852778823845,0.567980433987267
mp-567087,Ba2Mn(AsO4)2,1.79491102565002,1.77200906882555,1.80780801524941,1.2429,14.2035432681349,8.95397115102078,11.3815496347247,0.435652737045079,2.38326771251117
mp-566301,As3Pb5ClO12,2.1396729890336,2.15253278952958,2.1476226996379,3.3367,15.5749574178848,10.1548631276741,6.26386134131343,1.27322971078125,0.945050164434575
mp-556040,CaS2(ClO3)2,1.52184398674766,1.53310666295597,1.541917348628,4.6536,11.5125937707296,10.4220419702584,30.7899273056318,2.93028589371482,0.373741783627431
mp-557448,Ba2CaUO6,2.04928073235465,2.06911448209131,2.0502103794489,2.2106,9.55377323160473,6.46445534682024,3.49165938289589,1103.67287457372,0.287302844397642
mp-680219,UPb(SeO4)2,1.91236976550039,2.15192308877432,2.16957801426913,2.0149,8.92967724669843,5.98707145683638,11.3202038839691,803.776617214334,0.089581758331876
mp-572741,CsUP3O11,1.71735425291348,1.64001974378359,1.73160602332055,2.3835,8.70551682230145,7.0566630262056,24.0624507535607,190.220217746421,0.046815591354708
mp-6273,Ba4Na(SbO4)3,2.09315182440262,2.09315185784501,2.09315179573771,1.5893,13.9666205504675,9.30530816266265,2.34717867130717,0.347437244890068,3.30426102761855
mp-6674,LiLa2SbO6,2.11147576590403,2.09682165192941,2.07787608629581,4.1203,10.8439505490982,7.21815056853096,6.59987023971042,1.05751362714818,1.09713242263399
mp-15107,KSnAsO5,1.75699215137689,1.80101462237262,1.75682996331461,2.1358,14.1817373762947,11.00742101198,98.8372244452887,0.408887057517711,2.45578077329474
mp-556676,Na3Al2(AsO4)3,1.73147877549798,1.72941369255595,1.72657429611355,3.3268,14.0359378183947,11.1589997440094,66.2013054964215,0.452439732882071,2.2253445687964
mp-17839,K3Na(SeO4)2,1.57219564940245,1.57047689572308,1.57515159905325,3.5517,12.3130168034507,10.8214996128795,20.2690009219864,0.59790863803203,1.72183274818244
mp-8449,Rb2Li2SiO4,1.65173547216254,1.63946372329491,1.6498157503188,3.9472,12.9703514035044,10.8408736151286,30.1115272684533,0.464645837004677,2.18538669331047
mp-16927,TbNaGeO4,1.78848190932981,1.80074048935431,1.83800010881392,3.7314,14.3716263302037,10.9308869501524,41.3926419970445,0.436810349222425,2.31348193093642
mp-6499,BaLiBO3,1.72611568557846,1.78014319648729,1.82777777916245,4.4023,13.523678797394,10.4597504630636,9.52930342595581,0.918172626685104,1.19405927821885
mp-649915,CsPr(MoO4)2,1.89611825844276,1.8944463650365,1.82656324281422,3.6999,11.827342899871,8.70774157205129,66.7830022346595,11.5843329174283,0.101297356058768
mp-541962,KGd(WO4)2,2.08877978973371,2.09654769561773,2.24684104689228,3.2546,17.0400228370516,8.0849817326374,9.88809917880222,67.8312207623258,0.115874145586391
mp-546625,HoBi2BrO4,2.46615734899459,2.46621904136676,2.29618254500813,1.6948,13.464859454288,7.97897396221509,1.05792376726846,0.312480775040636,4.1454445683361
mp-18975,Na2SrV4O12,1.7347236436966,1.89382604005753,1.89382604005753,2.873,10.0053215997608,7.48494139326708,5.88063684165116,41.7210604159708,0.194018319797145
mp-559702,Pr2Ta2Cl2O7,2.25462274893163,2.1987924913461,2.17376653070195,3.1552,14.0915437438758,8.96774489962023,5.74978185305679,11.5920515186095,0.260185648965864
mp-6211,RbLiSO4,1.4964775407603,1.49763472849691,1.49667781436086,5.2865,13.2866976662221,12.3646885632784,22.3271491097444,0.583944875985065,1.7572789314331
mp-560898,NaPr(SeO4)2,1.80829765248977,1.74434873520177,1.74939817651671,3.3976,12.7462280036062,9.91660292180905,14.6632462948203,0.636201669870956,1.64002635370483
mp-14316,KPr(SeO4)2,1.72592366285418,1.70907546351821,1.79439349920802,3.4507,12.8403229338668,10.1267946092479,24.338087089743,0.728206417152673,1.41432486943609
mp-557382,Ba2ZnWO6,2.17996985070895,2.17996838967908,2.17996962593519,3.0199,14.157116395923,9.11052895682079,1.8503409688546,1.66078111808653,1.14256723940502
mp-561474,K3LiSiO4,1.60133334755759,1.60676414261708,1.6037349500463,3.6727,12.7939057106201,11.0017135216283,68.8604242141787,0.485851449733781,2.07276441850216
mp-687105,ThCd(MoO4)3,1.98074619777497,1.98074613466744,1.97581224310409,3.5168,12.0034330514112,8.40106730843046,28.40626423139,13.4688544144466,0.109448866814477
mp-540707,Cs2Sn(GeO3)3,1.80976294580257,1.80976287673275,1.83780474479744,2.7835,14.9294020092236,11.2951226920325,5.08986415680076,0.386928970470079,2.78092257342261
mp-542919,NaGe2(PO4)3,1.71650366151663,1.71699562608645,1.71418814311615,3.9201,15.7143310524218,12.5904597659842,9.61431084338889,0.594456557411061,1.78622032758103
mp-561072,Sr2DySbO6,2.00646794392534,2.00156799284961,1.99629045481864,3.7186,14.8693689352263,10.3032426126179,9.1872255204742,0.429857481120231,2.43519922911692
mp-561462,Ba2Nd2Si4O13,1.83987562079615,1.83651208272638,1.83544146460736,5.0672,14.7156979211034,11.0286926697749,45.7704292354359,0.457248595655857,2.20884230910226
mp-20066,CO2,1.36563749582384,1.36563749582384,1.36563749582384,6.6332,11.7780274771126,12.361549799365,7.72934032715394,0.7404720608825,1.4798669937541
mp-29443,PI2,1.73893856993282,1.9206057950553,2.15839451676472,2.0195,7.59610888094358,5.41467589652819,4.60197421963308,1.95696728397205,0.728292790664173
mp-22916,NaBr,1.68523736310349,1.68523711684736,1.68523719992172,4.0899,13.6725660546489,11.1577209115669,2.54225031338999,0.330368286702159,3.42027721748984
mp-558797,VF5,1.60647869578155,1.53856119475307,1.5126081647274,3.0002,7.6939046160455,6.86064673544548,60.0022950018995,1032.04563104966,0.017634978595388
mp-27639,IBr,1.60882659413624,1.71638743586639,2.84868232872674,1.5028,7.05399825219847,4.76943931557245,6.26772385853334,6.24741940996564,0.319613642673879
mp-23295,RbCl,1.51006009151954,1.51006006834165,1.51006023389797,4.8393,13.2016563609866,12.1579379502836,3.9907149007316,0.449093164293938,2.47729113480812
mp-22914,CuCl,2.27454009856938,2.27454074265554,2.27454059097656,0.5612,3.28067062999698,2.03764238304549,1.78418757615646,0.252324002233538,4.52363762950066
mp-971,K2O,1.80711222119712,1.80711229866879,1.80711221289659,2.1405,11.8331390049496,9.0095284591738,6.40165304904612,0.403019133001966,2.63748142901233
mp-22883,PbI2,2.33314870936252,2.36013514655411,1.92048633944634,2.554,11.7193622093287,7.47079336119618,2.34739057857996,1.31807339785307,1.18468803868611
mp-696805,H2S,1.62483132355331,1.68477569723688,1.66326089354617,4.3986,11.2590529764162,9.34713480329751,4.99857130300146,0.427303211775121,2.54031572638526
mp-22905,LiCl,1.71542958176662,1.71542978579713,1.71543001606011,6.2532,15.9190137855039,12.7579518372526,1.68447134801809,0.483315184069379,2.66270127462939
mp-22913,CuBr,2.465275079986,2.46527498263378,2.46527477373213,0.4859,1.93023045450679,1.12302706454042,1.33027351049762,0.170246160547585,6.62557270018618
mp-555003,WF6,1.41636243596051,1.41875304052538,1.41871456255302,5.3735,10.4037337953991,10.3673569669563,45.963646607246,40.1129181369681,0.046685949095458
mp-753746,Rb2O,2.07767574948547,2.07767562675216,2.0004930367287,0.7927,8.08600239193291,5.48121333971096,13.5528098977719,0.357088351924729,2.87421282307019
mp-643265,ReF7,1.5393344990612,1.60304619708853,1.57403669588736,1.9988,7.54326775224607,6.63173994235876,468.355723623815,22.255166834085,0.047068515156366
mp-1087,SrS,2.15599496984571,2.15599521799099,2.15599515073666,2.964,14.3866004497626,9.34531782066116,0.942708891150823,0.434304273636848,3.36330603237524
mp-614603,CsI,1.64113875708302,1.6411388972296,1.64113907393615,3.8572,11.0727698622359,9.28984528232117,2.67955778068584,0.369686023367095,3.07819403324631
mp-23170,IO2,2.19927925239156,2.00873726753899,2.5474291786034,1.7566,11.3155283774724,7.08684292536496,1.1982986455609,1.15502828808372,1.70029616822723
mp-30031,CaI2,1.8459665164894,1.8459663214696,1.64352808616099,4.3474,9.5406059813703,7.37716315173035,3.08973565966904,46.0930871573434,0.345347510200125
mp-10694,ScF3,1.5926033687017,1.5926033687017,1.5926033687017,6.5759,12.2627526941133,10.6272583269683,4.27758624494334,1.86058051953424,0.771243362209328
mp-1820,YbS,2.27048796297184,2.27048756878341,2.27048792113061,2.905,15.7762985202655,9.81320267354038,0.75802215908705,0.370732363323624,4.01658629615232
mp-8177,HgF2,1.95976478690684,1.95976454197947,1.95976473843163,0.9684,13.2402880040366,9.3488196384317,7.01745152838009,0.281691947518222,3.69247910647413
mp-541788,P2S5,1.851027844199,1.87127907325444,1.88334620556073,2.6453,8.36029987709781,6.16693275968915,11.6073657845006,4.1427383960601,0.327538420713747
mp-569766,TeI,3.5615462667218,2.63396857612235,3.08598022838773,0.8516,7.75515650787889,3.78936683153044,1.63298043613138,1.91644344801221,1.13417710812558
mp-463,KF,1.39915920466543,1.39915907601673,1.39915895451518,5.9956,14.4686464629948,14.6788788498503,5.98311428075207,0.560380224801154,1.9516396950269
mp-468,AlF3,1.39386166817228,1.39375660715923,1.39430922323565,7.6012,16.2523751751066,16.5724629883498,4.66788691370727,0.547659161117628,2.04018290128594
mp-634117,BH3,1.43648025743482,1.49738371167847,1.42484565128999,5.3322,11.9661308742758,11.5538079997102,6.7623387732745,3.47833978727997,0.435371309543152
mp-1039,MgTe,2.33941929119173,2.33941924417151,2.35975471394804,2.3612,11.307430072323,6.84663364020556,1.57888062156131,0.184397985476689,6.05641284525811
mp-539,Ga2S3,2.42271766823953,2.38341782740668,2.45609101012157,1.7018,15.947242191925,9.41471228711055,4.08986227139119,0.287067113974154,3.72801296262072
mp-22981,TlIO3,2.10982652604426,2.11133626407543,2.1082501345903,2.7785,14.7317432299168,9.74827229163296,2.31581020264974,0.594502152182762,2.1138940135701
mp-5020,BaTiO3,2.35602956051065,2.35624873050364,2.35580881015417,2.9742,12.7409645807785,7.68842547777911,2.20710227760876,2.24783962121683,0.897954359902456
mp-7375,KNbO3,2.32342589294344,2.32369819684054,2.32315140918538,3.1194,14.1323480972632,8.62553208639669,2.20224522975351,1.22063352273222,1.27332874900006
mp-7610,Li2CaSiO4,1.74260472856009,1.74629189427197,1.74763120537486,5.6616,14.5893206847664,11.4906099188186,3.45105848702758,0.502766068267593,2.27876276917774
mp-7848,AlPO4,1.46122866109312,1.46177741465655,1.46216975074716,5.6811,13.9286958195208,13.3465610157751,5.52187856157403,0.573492925341793,1.92479846245914
mp-560008,PNF2,1.61059477833501,1.41010022338839,1.38372469443889,5.609,14.264709206346,13.594016088997,93.0205068913642,0.666465430592096,1.51120323556466
mp-752467,NbO2F,2.43514106572905,2.31490577778017,2.22147866296303,2.2696,11.8909814405655,7.2564724522753,3.12113392358236,14.0838292702138,0.391399793413554
mp-644222,CdHClO,1.91800961937108,1.91789826111814,1.81980277502811,2.4635,15.1021619081716,11.0482153190425,2.35275334614275,0.313660104110251,3.61319840089796
mp-625150,ScHO2,1.96531456006411,1.82603614969693,2.01112962038751,4.413,12.2699298601488,8.76745820987781,21.3097290975513,3.8145525891022,0.309080864697181
mp-3589,BPO4,1.60731121753069,1.60812470909442,1.60944919770709,7.3715,17.0247081518266,14.5967446830021,6.02700053134035,0.597705740039241,1.83898408511121
mp-7849,AlAsO4,1.55373155017204,1.55579747718011,1.55721282424722,4.2769,12.8286163601297,11.413905186051,16.0632234795928,0.622880370577953,1.66769872189355
mp-4187,Ge2N2O,2.0809772319754,2.01804338902809,1.98855585790292,2.7293,16.4884194638332,11.2868112643685,4.22288342444017,0.330783452432295,3.25993085393731
mp-10341,SrGeTeO6,1.92248216376642,1.92248205193182,1.73359710428923,3.1561,14.4050621487042,10.6741179687338,8.826256127794,0.509002785530316,2.07792411171825
mp-10851,SiO2,1.5313899372792,1.53138982953394,1.53825730292432,5.7223,14.8239725183042,13.4056340055078,4.1009378095381,0.534352309716262,2.11527115544311
mp-6922,SiO2,1.53141221100003,1.53141212611106,1.53818457605061,5.7224,14.8228442949352,13.4047088616573,4.10803939330167,0.528857176119673,2.13429480549528
mp-223,GeO2,1.75260764006095,1.75260753450395,1.78311013400743,3.3223,15.1935070429567,11.8507003582764,11.8077853734172,0.435529591150379,2.38074512638543
mp-733,GeO2,1.75250350070977,1.75250349215059,1.78284513629199,3.3249,15.1915000940608,11.850177314993,11.7827997942883,0.43649261305816,2.37585898748496
mp-764673,Na3VO4,1.63351688084329,1.63351688084329,1.63045760141133,4.063,10.320878715396,8.70778816134347,24.3881586664846,3.2677129456289,0.347027938155104
mp-7446,Rb2S3,1.88432595640988,1.97508572978491,1.848556980458,1.3905,9.7193460699158,7.05013962840644,9.00737469519448,1.5005600472703,0.777437989702365
mp-22993,AgClO4,1.68332511714167,1.67841518105622,1.67502400281309,3.2514,12.1047037563527,9.91655899011649,10.7524566860378,0.530422951753139,1.97828995340302
mp-28295,CsIO3,1.79483893427795,1.74870341110207,1.82993308620835,3.0864,11.5975681766705,8.90603246026457,1.36012556886971,0.849577008291437,1.91228256954809
mp-154,N2,1.23663200265883,1.23663200265883,1.23663200265883,7.3589,8.45228647519685,10.4492439951404,14.8949769659475,2.81524219867682,0.42234595199945
mp-551905,OsO4,1.57402048271298,1.56127763386273,1.58741399767043,3.33,8.7659157094394,7.69515329206333,20.3649725843986,2.59999425446085,0.433720155305953
mp-23292,HgBr2,1.93038039515532,1.8596374297158,1.80980394518301,2.5651,10.9956425247143,8.11877376711744,2.82812025694498,0.581719400716866,2.07263361218811
mp-765135,WOF4,1.46335235333121,1.46335235333121,1.76583363032875,4.4978,11.6620691655148,10.3114653805589,268.894068040768,96.6740302924328,0.014062976257324
mp-778780,VBO4,1.91355595423808,1.91355595423808,1.93226092440954,2.7063,10.5363483959575,7.58012720414773,3.70289865299921,5.45193110398723,0.453479947652908
mp-27726,SO2,1.46823645915772,1.47048490301669,1.4821706683105,3.3276,8.81009455368814,8.35710147412814,4.45364283251962,4.64754692888487,0.439702566630105
mp-22958,KBrO3,1.65613204787541,1.66176044603306,1.64921099014044,3.8455,12.5124978691303,10.4003741793399,3.04245096427265,1.01695684355837,1.31200826872573
mp-626620,RbHO,1.5881927842677,1.58703439786288,1.57952929380876,3.3341,12.4153026130013,10.8170741496002,21.9262465987237,0.428461421558961,2.37953985526162
mp-626000,NaHO,1.52650573533151,1.55178108636496,1.52760025530241,3.0637,12.0580651354549,10.8910604817824,6.31050922106231,0.503234611790601,2.14561053363531
mp-570480,TcBr4,2.42547888673557,1.98157586783852,2.1689508523708,1.1046,13.489016230007,4.1832268073185,8.72483097431082,11.1934342999253,0.203953487257292
mp-31577,K3CoO2,1.83365311877683,1.90913672375763,1.86300251744328,1.9276,15.4393657872498,7.32382610633186,192.882359204868,15.6934102617357,0.06890552034788
mp-763186,Li2Mn3SbO8,2.40914113326721,2.40891451903134,2.35562668519441,1.0968,12.3062856529832,7.33739624815546,2.92846478478235,5.39546361389929,0.526816734241238
mp-540844,Ni(NO3)2,1.70218892899701,1.70218914636418,1.70218892312223,3.4321,15.0737249089174,10.2439521015142,4.35805068523374,27.1714432574876,0.266263732721422
mp-743568,MnH2(SeO4)2,1.71369185386405,1.69094092149903,1.73913005264126,2.1228,15.0531368250996,9.65097543799523,5.96537366010248,0.587287837008207,1.87037666094937
mp-762136,CrHSe3O8,1.8148600497008,1.98977236889047,1.81773978335734,2.8849,15.0452716249616,8.47877405770835,10.464376722234,32.0208782352718,0.126791933218162
mp-769464,LiLa3MnO7,2.33897106651621,2.32486417452719,2.40230541979991,2.249,12.716416206866,6.68628404951956,63.8068136921117,40.0597381299945,0.040635026770786
mp-540481,Li2CrP2O7,1.59497402173202,1.56594890721249,1.57622749309863,3.747,15.3601727930239,11.3634083253921,1091.27146678884,39.3904772747669,0.026303208767922
mp-505436,CuP4O11,1.76110978079165,1.76277294907767,1.76358677983251,0.5822,0.924694989208222,3.33914647868717,125.804647444225,572.399207380332,0.009695864409635
mp-579613,Si2Mo4P6O25,1.69924189566995,1.69924195746221,1.75302225313885,3.2525,17.4768305642045,10.9721079934626,0.099994275476281,0.100118789843225,19.9887075951057
mp-765839,CoRe2(H2O3)4,1.58862037944878,1.63494639361662,1.6281318589107,3.0033,12.1955033229155,8.8557978532776,125.206399110054,119.822927650868,0.016332460428597
mp-765668,V2O3F,2.56477529035196,2.56477529035196,2.63023102787569,1.2768,10.4646077956715,5.86147564475541,0.001201107891879,0.001201179914876,1665.07942651525
mp-772231,RbCrO2,2.22761561091675,2.22761577476907,1.97568857363705,2.8894,13.4561385347471,8.78374537091036,43.686491707613,0.835469231009435,1.21982254136465
mp-771093,Li3Cr10Fe5O24,2.22187081082587,2.22343473032154,2.22343473032154,2.6557,21.1997211663295,8.14354522330905,0.007471625151107,0.007472743446874,267.659352496091
mp-740718,AlH6N2Cl3,1.55728725673846,1.56063193931177,1.57246478815902,5.0335,12.9395515383948,11.4469274377803,7.8713093951659,0.451651019256055,2.34114251060111
mp-6163,Cs2NaGaF6,1.49763014459512,1.49797718607461,1.49219378098155,5.9678,14.1022654009689,13.1341909865627,33.8277743837809,0.535800551740305,1.89592763320568
mp-697084,HPbIO,2.37652376171584,2.43990168859321,2.4532625318135,2.8097,14.6455857079354,8.63912554380208,3.19527522293012,1.00003299574702,1.31292909161947
mp-23944,BaH6Cl2O11,1.54494256527549,1.54494253938456,1.56014948001786,5.362,13.3375248610996,11.9152711517775,20.9187304919789,0.583729665719719,1.76092582135317
mp-740714,LiB5H2O9,1.55908177463531,1.50791596582833,1.52867030454575,6.0917,14.9179264267567,13.5088938563915,47.3736018921682,0.650268823896475,1.55893433429281
mp-642844,BaH5BrO3,1.73160302898788,1.73160302898788,1.66574111133753,4.7655,13.7083470890509,11.023839122887,6.51801547592661,0.447712478434166,2.38699727294064
mp-765597,HS2IO8,1.83885038543107,1.89868836832167,1.5146399671209,3.0292,12.0920577266995,9.49563231269342,43.6166526486273,49.2795482505401,0.04321941684781
mp-571011,CsI4,2.29130659450018,2.16211705511057,2.03513170581169,1.7811,7.94956343363387,5.15001954870254,9.30223612269913,32.1569347218569,0.138598525187044