MP_id,Formula,Ref_index (1),Ref_index (2),Ref_index (3),GGA direct band gap (eV),Effective_frequency (eV),Average_optical_gap (eV),effective_mass_valence,effective_mass_conduction,effective_mass_transition
mp-9077,Nd2Be2SiO7,1.89164809888097,1.93495528888913,1.93495528888913,5.0258,15.8683719604943,11.4121636822702,10.5178608935801,0.687003502062385,1.55067302239259
mp-10814,SrLiBO3,1.65431425067911,1.71236395664006,1.7435504839264,4.5979,13.9667990253883,11.2734500706338,6.37852954132434,0.560278723757635,1.94160188591059
mp-558692,Sb2ClO2F11,1.42947746047288,1.44925274193289,1.49929362034259,1.8617,7.96243369655619,7.64529778486299,1726.09041348199,290.325117143216,0.00402375827906
mp-559284,Rb2Al2B2O7,1.53543015145594,1.57825591714398,1.55479662657211,4.2124,13.0534085263091,11.6089885743006,52.0174175355886,0.509894443756982,1.98041455719175
mp-14665,KNd(SO4)2,1.63454499479213,1.6168359162265,1.69611479564327,5.6613,14.4044979112953,12.0229218580742,102.290948578957,21.8118242863227,0.055622728499099
mp-550111,SmBi2BrO4,2.4891815803593,2.48945418314939,2.28941521791046,1.6545,13.4009957743874,7.90639853407165,1.14217646379502,0.339302713410791,3.82274221286385
mp-557104,LiAlB2O5,1.54263896618749,1.54340907733498,1.56608363442059,5.4244,14.3092791796542,12.7768235090123,8.06949782120875,0.606158371010142,1.77365732664269
mp-606691,KU2P3O14,1.74948319511792,1.6786224918069,1.76959921733708,2.3917,8.08975226727303,6.41892310087235,20.8660332432569,1369.48800291204,0.048654977374456
mp-565194,CdMoPO6,1.95294152754249,1.96020814711091,2.00127252766833,1.5601,18.5808946399752,9.0767375134184,58.8542806793808,18.8153138865367,0.070139314045721
mp-19114,Ca2NiWO6,2.161882080503,2.17158485443236,2.15689209975835,3.5126,16.3690407701696,9.37634939209496,1.5129097825376,1.15755679106356,1.52486644572899
mp-18109,RbDy(SO4)2,1.67960589127331,1.66029813888952,1.55182408152471,5.6663,14.2046614025837,11.9996370894621,851.521012261829,2.73974478894815,0.366171869650835
mp-558045,NaLi2PO4,1.56915758928159,1.56349130474077,1.57053805429859,5.1689,14.3478112898976,12.6538371131368,8.10362719687775,0.563147995087352,1.89913368051058
mp-12187,Na2Mg2(Si2O5)3,1.568455115711,1.56950215673633,1.56988453715552,4.4103,14.2470244535803,12.5509961050203,23.6486313140849,0.496678726387339,2.05565967670305
mp-558483,K4LiIO6,1.69776109037756,1.67965184487738,1.68610139374831,2.088,12.021018531551,9.79440713387917,59.3731741287631,0.67808934186843,1.49157454752744
mp-505697,Bi6P4PbO20,2.13983409169963,2.14203224765642,2.17180591213856,3.4413,14.6449963827302,9.53109688495957,8.02996609349916,2.78936626862127,0.483037898221433
mp-560189,NaLi2BO3,1.6097089674845,1.59617158225549,1.59081379802917,3.9916,13.6418999186756,11.7713821419625,16.7516739837747,0.652979888219225,1.59113626167581
mp-557417,As2Cl3OF5,1.53236703175186,1.53695430966571,1.51668986941959,3.3,10.2787954174551,9.33074844362376,111.57446501535,2.49888115800719,0.409141719068166
mp-554505,KHo(PO3)4,1.63854659683513,1.64077597495819,1.63819569038623,5.3415,14.8456341442737,12.4710607812261,36.4606304887485,0.529300150312742,1.91671404532169
mp-558039,Sr2HoSbO6,2.00492025277815,2.00080398340267,1.99304605315582,3.7069,14.9233578142758,10.3491639460426,7.92002846905315,0.426533144046643,2.47074586366533
mp-551243,BaBiIO2,2.23956061315607,2.11580305794278,2.07651906324021,3.1234,11.9478991682014,7.79821924596457,15.7330855362564,1.00231595915746,1.06124971521321
mp-8872,RbNa2BO3,1.63688670652553,1.63586478658843,1.57379534247627,3.1625,12.6856958850081,10.8238599927155,6.37149914811,0.474394285290095,2.26490012789406
mp-553926,NaLiB4O7,1.60858489362545,1.59307964647095,1.59825057171897,5.7974,15.6902929822895,13.5289655169651,11.1398168967914,0.654796905828936,1.6169591717786
mp-6231,Ba2ErSbO6,2.06492333998141,2.06492354337879,2.06492332061023,3.3733,14.7161341487576,9.9208238725026,2.2257687609504,0.383670695684589,3.05568479151512
mp-656850,Ti2O7,1.85214926504318,1.7961151243726,1.7238000551108,1.1641,6.75992814462261,5.19242103434658,48.040882521499,142.693046092633,0.02782365427185
mp-866620,Cs2MgP4(HO2)8,1.56362153988745,1.53068715941567,1.5433414236649,5.4134,14.3236580660395,12.8353531081226,110.943895417374,0.507038807557267,1.98124919082836
mp-768146,Na2AlPCO7,1.56996182756142,1.50789799389747,1.54560852093924,5.0719,13.9627050192947,12.5560082116312,19.3762864225871,0.592875587040707,1.73830399031636
mp-905,LaF3,1.70127312034253,1.70127327610822,1.7011407496148,6.0429,10.1953043758957,8.23998509175307,10.2891438794767,86.4523127099006,0.108756886503089
mp-27729,ICl3,1.69149566951855,1.71109033659828,1.91755181155556,1.8154,7.40557663583216,5.74237586895437,5.83609931289998,14.8571237105677,0.238655103071384
mp-15079,Cs4KLiGa2F12,1.48864102791775,1.48900943919103,1.48285378915118,6.0599,13.8324436564123,12.9784474569821,62.5141265816953,0.529873464579575,1.90323940910961
mp-707811,ZrH6NOF5,1.51091864771072,1.53613745478717,1.52061833146914,5.7867,12.9527700900147,11.8132860824922,47.1984407691309,179.600444921036,0.02675505552285
mp-722278,BaSiP4(HO7)2,1.66150535960616,1.63384749594324,1.61621963853927,5.7483,15.4020527132918,12.9551241836968,15.8233790569229,0.53231176720835,1.94179596231662
mp-707900,PrH20S4N5O16,1.58002696812428,1.61490644620671,1.61832295293616,5.2816,15.085206649025,12.9678607518615,436.581788716669,0.571922779707961,1.75077831655733
mp-8511,PF5,1.29848684244393,1.29848694256046,1.31487292541903,7.0881,13.3011074481173,14.978327668464,31.0429127647644,0.798373349083843,1.28476029250453
mp-643586,CsHS2(O3F)2,1.44631838818429,1.44665823192626,1.49138771954177,5.6788,13.2331249134689,12.6830024158853,66.0185095378329,0.630570734300876,1.60101217586788
mp-23205,MgI2,2.00040731602341,2.00040720354632,1.740508325174,3.706,11.5682415740907,8.34646167985638,16.2258979565994,3.03860952875464,0.390727766246364
mp-697253,SiH12C2(NF)6,1.45566421608831,1.49316428767902,1.37320377948795,5.1988,14.0280338968256,13.6915644934214,188.409440336755,1.0384083907487,0.968319838909493
mp-22867,RbBr,1.56573663813555,1.56573675629079,1.56573687444602,4.1927,12.8164014173533,11.3194138202189,3.55597868997423,0.403105939356796,2.76195398319104
mp-1784,CsF,1.5122828373026,1.51228282738382,1.51228258272057,5.5366,13.3223819893402,12.2477355143166,2.31922678633628,0.442192408581888,2.69263718178744
mp-723378,KAlH6(OF3)2,1.39334482092553,1.39334482092553,1.39334482092553,6.9927,14.5096863779068,14.8046605912723,37.3544836317952,0.55681195342899,1.82270900421537
mp-7988,Cs2O,2.17814222676115,2.18731261826013,2.05254917602478,1.039,8.18492032199388,5.3520251497744,8.95096972232748,0.409752653384365,2.55221644277157
mp-761185,KPH3O4F,1.47123452923047,1.47351214789699,1.45862937376155,5.7538,14.2284435109082,13.5634532124858,24.382310483224,0.564214722250138,1.81338821927851
mp-1022,K2S,1.78589828377766,1.78589835097074,1.78589822218401,2.496,11.6445129492432,8.96762548124831,16.4027769523183,0.369819225804725,2.76498911843456
mp-555082,CsLi5(BO3)2,1.59396055785581,1.62172468995203,1.62164224167971,3.4975,12.6460195023311,10.8122603499296,32.8644868027977,0.598888934305021,1.70018666759974
mp-549728,DyZnPO,3.11292594354572,3.11899711445843,2.85690358955286,1.3277,15.9024014537941,7.89291870312344,1.76323747759088,0.616392067699978,2.18948262475032
mp-557457,TmSeO3F,1.97694814044274,1.89779126091359,1.83384948946199,4.4115,14.0070143335207,10.1592765406421,5.75668815122564,2.57600442164954,0.561909081800045
mp-558085,KNaGeO3,1.69223893702987,1.67344321385579,1.68154452215813,3.0314,14.0208587372196,11.4617622291303,22.5136169758817,0.4419466075718,2.30713433208391
mp-560866,LiLa(PO3)4,1.64406678392333,1.64460787727653,1.64664033413493,5.2188,11.7509289735894,9.83364275642285,37.6385689906975,821.150569373612,0.027786294946431
mp-556250,KSrB5O9,1.62095255945385,1.53280916946631,1.61425986445801,5.2003,14.7251800083289,12.7901445474892,11.8020693337355,0.600162749248124,1.75094561170006
mp-510276,SmTl(WO4)2,2.2284819249884,2.23006295426833,2.32170966100415,3.0227,14.9475028380175,9.33309630499837,2.26137114872266,3.72902005662034,0.710376553646173
mp-22551,UP2(PbO5)2,1.96701392470923,1.91467259081024,1.93041465493816,1.7815,9.41037960390343,6.71404901276499,12.9891329758854,457.939403997697,0.079171127666258
mp-34078,H3ClO,1.50529940543402,1.53746505976559,1.55193060734042,5.3864,14.8558878290328,13.4560249402594,5.82421838475747,0.482694745486369,2.24339954298285
mp-632326,HCl,1.43470805044093,1.48353037043399,1.3608475557534,5.8166,11.9243508820023,11.7902601518972,8.75842632857185,0.571463669803731,1.86406827982951
mp-3277,BAsO4,1.74444438719037,1.74812777565028,1.75440813381607,4.7217,15.1580246424629,11.9149448965994,3.88911504687149,0.764925674538601,1.56444446194034
mp-570935,LiI,1.77047542485062,1.77047577786311,1.77917455298799,4.3818,11.2667271025581,8.73637913695572,2.18280714147893,0.361347517343997,3.22554471848462
mp-20459,TiPbO3,2.56890217992044,2.56890217992044,2.47422959928944,2.7965,14.4377540375744,8.2101312417936,0.683012693004475,562.05837381627,1.46588080882076
mp-24066,SrHClO,1.660224822125,1.6602244878329,1.63756739097968,4.9859,13.373963455762,11.1378292593586,14.174022816621,0.422770045002009,2.43590366828271
mp-642725,CaHClO,1.70328894201777,1.70373171009992,1.68112675012921,5.3271,13.4888485824797,10.9358441621368,3.19548268606108,0.422998451987586,2.67701661299597
mp-1880,SbF3,1.63469636018436,1.6609539698619,1.7498022231098,4.7234,13.2680936222688,10.8503246922284,1.90617869776085,1.774641275725,1.08810394951334
mp-753671,PNO,1.86622474530802,1.71450041119855,1.78149960707265,5.5112,16.4105909234855,12.6276936709518,2.46882886313685,0.836451349396837,1.60057714588597
mp-32479,Tl3VO4,2.29695140131436,2.24307060521955,2.27432657505469,2.6025,14.1918194236948,8.82453087483163,1.34284002572757,3.3066718352893,1.04710922561199
mp-550714,PbO,2.24960407405392,2.29574589186173,2.33109308479949,2.6746,15.1824126175816,9.37008727571036,1.75141252620656,0.841779302990705,1.75892754312716
mp-6930,SiO2,1.55393683912828,1.55393672329346,1.56304693147711,6.0025,15.2241744671565,13.5315277659747,7.44199007731889,0.51255145144519,2.08539630263389
mp-3666,LiTaO3,2.24790931979028,2.24615750560819,2.25624604154777,3.717,14.4449825667557,9.05251336573613,3.47950943404712,1.43961533535147,0.982026835099742
mp-3731,LiNbO3,2.34022277358375,2.34800507878497,2.302238958058,3.4122,12.9953691641653,7.91285054209713,3.53044526729793,1.59513032897813,0.910158412723531
mp-7000,SiO2,1.55338981263558,1.55339006369939,1.56249036797031,6.009,15.2327522710661,13.5445833878658,7.40183251655785,0.510006423334285,2.0958612973133
mp-4497,Si2N2O,1.88155846574057,1.82434361072688,1.79203092886256,4.9186,16.4335955872547,12.3456909754591,3.52443754788349,0.468006020992179,2.42045786298865
mp-16577,Li2CaHfF8,1.50664468936774,1.50803199568179,1.51907847065252,7.046,13.7293001294948,12.6320370192552,16.3015451335085,143.624170442257,0.068306494620915
mp-29515,PH2F3,1.36782239344149,1.36666847113702,1.41168965073773,6.463,12.8659396577691,13.276390322828,4.98313169094509,2.65290945004975,0.577621657290589
mp-5853,LiSi2N3,2.0854726466679,2.0516491707892,2.07542613696561,5.4802,17.5032564441984,11.7703641361941,3.56646171575734,0.479768095517704,2.3647302935157
mp-552663,LiScAs2O7,1.87807951109638,1.86229220854301,1.85973752449102,3.554,12.5603902303343,9.27368018198103,5.26786220854538,0.676935798449984,1.66707529109425
mp-556605,ZrO2,2.4134732544613,2.34266536876268,2.33760668847435,3.8019,14.1329377335601,8.50332727796927,3.88282718277564,2.97661110740516,0.59349681686027
mp-11674,Al2Se3,2.43071601590972,2.3997813733755,2.46540592600894,1.8246,11.695919636589,6.87926797589701,3.00304057189405,0.234894185138239,4.59023191427668
mp-7457,SnF2,1.81882775984973,1.81882775984973,1.82676305250572,3.8536,15.2506258743383,11.5238598754092,1.64072975654435,0.698965491742316,2.04017068760298
mp-21892,Al2PbO4,1.92314870719869,1.8889483873309,1.92625817324677,3.9425,15.4044797837511,11.1195712838649,7.78506044813337,1.65981045341468,0.730929586557008
mp-12885,BaAl2Sb2O7,1.86884001455448,1.87613228478165,1.77391392688597,3.5627,12.6558216625412,9.47343310990084,6.32029006494163,10.0499833603687,0.257723238660825
mp-20496,Ga2PbO4,2.04503969643623,2.00591274735468,2.03214790308186,3.5337,17.7200909443577,12.137787378232,5.87692875829476,1.03511506068112,1.13623308000947
mp-756156,Rb2ZrO3,1.72642264813689,1.77817325927481,1.84432296520973,3.5689,12.1503275422413,9.37208177435065,19.765461338698,0.461684524501409,2.21657450342445
mp-18938,Tl2MoO4,2.03958491365278,2.01972406778748,2.02567669681023,3.5342,13.6663687941639,9.35854155177248,2.35312034446992,3.36523284224047,0.722123898630836
mp-23904,BaH4O3,1.70488181701841,1.6596748175471,1.63419014805499,4.2788,13.8902292835818,11.4691264871985,29.1934564944637,0.512124589433142,1.9869040961224
mp-7913,BeSiN2,2.16245286653837,2.12475380456184,2.11340512443781,5.2977,18.7745151407576,12.3049118821135,2.1091222772247,0.490113564371256,2.51447432769507
mp-23959,KP(HO2)2,1.51978433009424,1.50073494661782,1.50697135341054,5.452,14.4909136504099,13.3546859284663,19.9202179337443,0.541573468207927,1.89667180163463
mp-5854,LiGaO2,1.82326453099927,1.82580863455073,1.78849301648063,3.1981,17.7073906476342,13.4434541044253,3.31558796104471,0.414080552133175,2.71659468314806
mp-35082,BH6N,1.50688383427522,1.47440768107061,1.53079947086482,6.263,14.0155664953949,12.9691616883916,6.65422586689838,1.67948917135534,0.745699582494385
mp-696752,KP(HO2)2,1.54190386211333,1.54190386211333,1.48950989926217,5.6398,14.737071349706,13.4211942780988,28.2312387592498,0.534226504988205,1.90728694744859
mp-558491,BaAlBO3F2,1.67360018224186,1.67360050788711,1.62653577273911,6.223,14.922596108199,12.386298454736,18.7107527239486,0.470576301189367,2.17849909550486
mp-753401,Sc2TiO5,2.20441696827075,2.20472155611542,2.16348860408369,3.1706,11.1022510605106,7.11462917671213,3.38569646924841,20.8968792385139,0.343214239503487
mp-558387,TeOF2,1.80871799073266,1.77488662454817,1.83296571162693,4.189,12.7674684942365,9.72913208715322,4.50445761934757,2.85329051526857,0.572474859738867
mp-23778,H4CN2O,1.61379884434213,1.48974780416015,1.48974780416015,5.0712,14.2370559936456,12.9000759665756,6.01167962557418,0.896176251933597,1.28219479256096
mp-6015,LiSiNO,1.88318584319233,1.85060731112789,1.75344185817494,5.4123,15.8902072069722,11.9595832618535,3.41571709674376,0.513337011114658,2.24080228404785
mp-19219,Li3VO4,1.80555772546878,1.75132583490337,1.78385896864074,4.1154,10.7009190744857,8.26638818888325,5.73777499553205,25.6587512906159,0.213256643583966
mp-28027,AsF3,1.49014903617054,1.46688814161135,1.48130588670943,5.4122,11.7993441293694,11.1384768865143,2.63234761544274,3.01391995866174,0.711682851347246
mp-3427,LiAlO2,1.65860843781768,1.65860843781768,1.63944172205053,4.5899,14.8231509640702,12.3482697545146,3.53129389856512,0.489631278047798,2.32553550493911
mp-9197,Li3AsO4,1.68003727934829,1.65766003149017,1.66404408294973,4.232,13.7157881250603,11.3180283400654,5.2670173519978,0.629060313383186,1.77953346481435
mp-13725,Li3PO4,1.59087639997581,1.57749490015024,1.58370520299707,5.9093,15.1891836002285,13.242141666394,5.85977684735192,0.625260972001585,1.76998715334013
mp-624234,TePb2O5,2.46786522119827,2.39935640537207,2.45422594518109,2.155,16.0555328363324,9.41706583229805,1.96760979504114,0.691506145014159,1.95434959775287
mp-752676,TiBi2O5,2.3533645488959,2.37178137061577,2.34972728417576,2.5795,11.9678480740003,7.21626280283264,2.74060910442689,0.751466037504897,1.69561451902427
mp-38322,Mg(IO3)2,1.93739279445341,1.94172972630075,1.83974243577736,3.5123,12.0464536106207,8.72283223095999,10.5857311082578,2.08372642167186,0.574376235980108
mp-28513,Pb(ClO3)2,1.81465087275762,1.79997221645224,1.83501622881107,4.3483,13.7166193214976,10.3915695959509,2.70494457696524,1.82173170948569,0.918621592192034
mp-510293,Pb3SeO5,2.21632884518521,2.26689792888873,2.26584861144782,2.4614,15.2360706813008,9.54973414122361,4.40102133902401,0.433451668538248,2.53428227665657
mp-556489,Ta2SnO6,2.42876577915615,2.49248463385434,2.4602475647788,2.3045,14.8422307895775,8.64873261099896,2.94441203102431,3.93256695791903,0.593913213918368
mp-557391,Na2Ca2(CO3)3,1.60923070440506,1.58158216985397,1.59821871469458,4.815,13.4149932251671,11.5958913132214,4.82405012568007,0.824364134825167,1.42035086501772
mp-30927,CsAs4F13,1.51921377363424,1.50268495700197,1.50678580760505,5.4232,12.1266123360674,11.1722678647918,12.7889714574753,4.87866898137112,0.2831663103
mp-23667,RbP(HO2)2,1.5105621602569,1.50162822962277,1.50944028036885,5.2329,14.0574839986011,12.9752185475477,21.1945218138156,0.512169544114415,1.99966045801467
mp-4906,Te2SO7,2.01704490282195,1.97443023173775,2.01868054679288,3.2947,13.1858610589376,9.1288396975362,3.15320266791247,2.77309382277699,0.677745942950079
mp-24595,Ca2B5H2ClO10,1.7043230151588,1.671661347283,1.67694473075293,5.1666,14.8053993214332,12.0890364499519,62.7942258317796,0.6099546020235,1.65539130726156
mp-28512,Ba(ClO3)2,1.60784544344287,1.58813169479108,1.61001218628928,5.3718,11.9784972646116,10.31419799239,15.9693814670196,4.4941522455495,0.285131208939168
mp-558102,KLiSi2O5,1.57779853276646,1.56499585941944,1.50887548525384,4.7644,14.1714220941228,12.6551640441391,30.4630714501059,0.508217210032263,2.00048923700024
mp-13863,BaGeO3,1.80274792747073,1.79323848386097,1.78623603143594,3.6774,13.6755480709657,10.4852408886171,6.47559001249534,0.451946559418175,2.36707706818612
mp-25177,Bi2WO6,2.52703046281599,2.49498932663048,2.5134756573319,1.9116,13.7247362431157,7.86728609964224,3.32901061491873,7.02141993123612,0.442810884802777
mp-13703,Al4CO4,1.80898362623878,1.81949709535355,1.83490258324523,3.9344,14.811118144894,11.193777788064,11.8110487780488,0.389781229234635,2.65020819280611
mp-23407,Hg(IO3)2,2.21832102275572,2.14853469601959,2.13013970433866,2.6968,12.6103418964366,8.16044672323104,7.42368227634032,3.14243034047693,0.452929074150245
mp-555150,KTa(BO3)2,1.80249181412843,1.77934074589439,1.79555181768725,3.8349,13.5295206853552,10.3823093543312,2.62529021272686,1.47605831810453,1.05839027578401
mp-9309,CsTa(BO3)2,1.83300425531421,1.82748221605574,1.85369877272441,3.6363,13.5066648561761,10.1184852794166,2.9360583713204,0.898871987787013,1.45309815002835
mp-755663,Ta2Pb2O7,2.39738542583374,2.36744791706175,2.39437405181396,3.1097,15.3699846352045,9.17904436378584,73.2813653466599,6.09467015145443,0.177723822443502
mp-571156,Mg(BH4)2,1.57447207342652,1.4945945001906,1.55042745396229,6.2051,13.1349823685332,11.8233851223808,14.4285054491073,1.19629573847292,0.905220950096978
mp-6257,CsNb(BO3)2,1.77576113821651,1.85769006833756,1.89428631151682,3.4516,12.3475244004412,9.22866319711902,2.5723170720968,1.3697929796399,1.11879188634554
mp-11321,Y3TaO7,2.14309463860092,2.14117622815125,2.10169074794557,3.7195,13.9199128921435,9.14107108018625,2.45674738585899,2.21754121760354,0.857992161029979
mp-23612,K3B6BrO10,1.60138434799395,1.5915602124959,1.60638506591664,5.2117,15.0404204607841,12.9703435142343,23.6202971346557,0.521230813483608,1.96087231651642
mp-555218,Ba4Br6O,1.84419085509065,1.84419100962997,1.85633034506254,4.2451,11.3941871694367,8.49152086666086,11.5147789859422,0.330025162483481,3.11691690226784
mp-556049,Sr4Br6O,1.85034841854176,1.85034848609661,1.86178172727095,4.2644,12.6069027917779,9.36704606903417,6.95443082538334,0.308270792418618,3.38769444100488
mp-23063,Ba4Cl6O,1.74581272477892,1.74581270759495,1.75774235597826,4.4697,11.5936179789589,9.10904350476086,12.689140476886,0.414849228028137,2.48932185270228
mp-863374,BiTeO4,2.51832152037821,2.35242014104624,2.43012082415669,2.4096,13.9461185735228,8.1983126108701,2.31462506737424,1.07414191444211,1.36301109506081
mp-10517,LiScP2O7,1.68919323050976,1.64742740962994,1.67200516147529,4.8707,12.5454648786651,10.3374934903641,25.6132655232558,5.59501604043993,0.217772766324773