MP_id,Formula,Ref_index (1),Ref_index (2),Ref_index (3),GGA direct band gap (eV),Effective_frequency (eV),Average_optical_gap (eV),effective_mass_valence,effective_mass_conduction,effective_mass_transition
mp-29731,HoClO,2.08952562319776,2.08952562319776,2.0204457107282,5.1804,14.1005147785201,9.49949555857486,1.72811094938412,0.950752937214253,1.63046450954806
mp-7972,RbLaO2,1.97905340251343,1.98611408282606,1.84436846915143,3.5458,10.8126850809441,7.71765182657624,3.08090785197534,0.739079581344905,1.67761392004858
mp-6964,TbNaO2,1.94186525794145,1.94273242110178,1.95275240622051,3.9201,14.2197738455262,10.1055944271841,24.860069806943,0.406451857643789,2.50054112737596
mp-8128,NaNdO2,1.97526142320453,1.97591153648133,1.98418945416006,3.3761,13.2526085148907,9.27806844112849,17.8546612610096,0.414503609400193,2.46853201071233
mp-4558,Li4GeO4,1.71692767174392,1.71485985141644,1.71438649959687,4.0941,14.3816749613272,11.5261455583591,6.93977579948657,0.583269245542015,1.85857094876038
mp-14069,CsAlO2,1.79604688134803,1.79604672823398,1.79604667534004,4.2839,13.9112966540935,10.6546684951029,2.03353258487456,0.347749504236677,3.36738823379399
mp-7480,RbLuO2,1.9352680537848,1.93876648671262,1.85973411271612,3.6931,13.4165643379237,9.69172329760201,2.19249725090341,0.541763484703782,2.30192483571948
mp-14951,Rb3AlO3,1.70679702366743,1.70995974806426,1.69962943314124,2.6516,11.7216698826149,9.44969476646791,13.5825112719845,0.394564070209657,2.60806671811339
mp-10417,KSbO2,2.06451211185597,1.80275884687886,1.8460624908166,2.0361,12.3882282759275,8.97830183520261,6.4438614558919,0.918994050187062,1.24333277927256
mp-27774,NClO6,1.64771631053407,1.61007386787066,1.63825592323056,1.4269,4.82995593770677,4.07634702744126,24.9259306962097,255.233041975871,0.044036851067184
mp-4764,Pr2SeO2,2.37234430469104,2.37234424146244,2.38478335494023,2.7381,14.0195290965199,8.40079698622062,1.4390698299092,0.666749753523489,2.19470638965645
mp-7959,KErO2,1.92526647506261,1.93143428311708,1.80037479709087,3.961,13.5043641599647,9.87711112335052,3.63858152393307,0.436568539518482,2.56542344892519
mp-27345,Na3BiO4,2.15268614990667,1.924087451235,2.03255725626611,0.9646,9.65582264163037,6.58899197806487,42.3712946429617,0.407750513657248,2.4760809334704
mp-4632,Sr3(PO4)2,1.75891967696083,1.75824577917878,1.76496354636576,5.597,15.7606532882942,12.3072491160305,3.96052199074376,0.463191186485573,2.41142769506393
mp-4519,KPrO2,1.98873631987752,1.99845093760142,1.81248995031697,3.7059,14.1355160080571,10.1049523241158,4.59104932617908,0.755024307417547,1.54227579864196
mp-23025,LaClO,2.09733876615105,2.09733876615105,2.03463856986935,4.069,10.8859853986386,7.30334625112646,2.11048743508971,1.07482594406216,1.40420738907648
mp-5348,MgCO3,1.69399774202919,1.71057031717495,1.57304518371215,5.6068,15.4293593647803,12.7964828111961,27.6200172880896,1.27478574555822,0.82065117125632
mp-5327,Na4UO5,1.93743753705765,1.83229794520433,1.85258203866927,2.191,8.08090461978021,5.94435020767218,4.33185791069768,383.005449997474,0.233458759238615
mp-27251,Bi2TeO6,2.58486077768223,2.45684578677621,2.41531002150863,1.4567,13.5289175144561,7.81975601883925,5.3742744040055,0.4901006572277,2.22646881249028
mp-27775,U(BiO3)2,2.81893344192445,2.81942199040867,2.76969654655524,1.6066,9.40055284372229,4.94861251071612,1.70147848421162,1580.663610634,0.588356798100407
mp-9783,Ba3(AsO4)2,1.8583199374704,1.85695302309994,1.87054603525281,4.1182,13.5157752144985,10.0029595679029,4.99261310347737,0.442393338462349,2.46072778001678
mp-4482,NaSbO3,1.85353180442095,1.87497181845488,1.71830487108662,2.7949,13.7680324400722,10.4357061401943,12.0152479609466,0.42754805554322,2.42214594636226
mp-3960,CaUO4,2.59803454365026,2.61862605577811,2.30365733345912,2.3411,8.5025385361164,4.88161468376142,2.72141321003104,1231.70569568656,0.368268024644216
mp-28602,Na3ClO,1.70152800447128,1.70152800447128,1.70152800447128,2.0299,11.6019286829371,9.37516016853987,6.24246469332972,0.366667544553461,2.88745933425772
mp-13676,TlPO4,2.03519271077704,2.00623431333431,2.02988956596166,0.9266,13.604340562942,9.33454947329671,1.86590913848514,0.324059717717373,3.62178276455934
mp-1216,YbO,1.97084473766961,1.97084430638242,1.9708446336533,3.6352,17.0705612254755,11.992358130281,1.13215826107738,0.485589687634981,2.94262054491988
mp-2605,CaO,1.94446645895474,1.94446620181478,1.94446598324579,4.0225,16.061004260909,11.4211112826121,1.4378312467756,0.588012480902237,2.39613608414042
mp-1958,SrTe,2.43699333605983,2.43699348378284,2.4369934509555,2.491,12.7047093255466,7.4602532851992,0.670467441049967,0.389613966759145,4.05813983754082
mp-665,SnSe2,3.26962542044192,3.26962554278009,2.27779653832382,1.0866,10.1405690903889,5.14919455100573,3.47015381236978,0.937214646981126,1.35516309828954
mp-1771,NO2,1.45418185245175,1.56364078995145,1.45597564196658,2.7538,9.3491949289152,8.74034505779393,9.677581243426,15.7000585390641,0.167025634778074
mp-23221,PrBr3,2.08567113179427,2.08567117015123,2.1868505870315,3.4284,10.4523287126562,6.8896107487332,3.08853033299337,1.99397138019428,0.825290302888257
mp-27871,RhBr3,2.65820036114662,2.62539527881041,2.10303780993115,1.3902,7.95062729114548,4.63034674449615,3.75041920525341,3.23130296921079,0.576109543012144
mp-1342,BaO,2.06843237017796,2.0684319809943,2.06843219855039,2.0906,13.2037832621069,8.88813324566861,1.04068927395947,0.485795185343671,3.01938228396126
mp-569175,ZrCl4,1.80001294717566,1.6656277585343,1.72137755300806,3.6885,9.00074364170766,7.156486223122,16.7147149080138,36.2532148079856,0.087411284210961
mp-570219,InBr3,1.78895084337161,1.96550874330286,1.98469904015697,2.622,11.0674533036385,7.98790576611172,4.04341929135774,0.503934652541158,2.23169970951162
mp-441,Rb2Te,1.85473783053023,1.85473780357225,1.85473795723277,2.0688,9.94144001886577,7.38441740233805,10.3394797795965,0.317578691681972,3.24554253438917
mp-541582,ReSe2,3.79522093955016,3.77490181594171,2.53138995020522,1.1492,10.767565712279,4.94281395046111,3.15930602363468,2.25584378636752,0.759818315753708
mp-691,SnSe,4.59619825072853,4.25228036469845,3.91217639300684,0.5922,7.61820671743678,2.95743935340316,0.380446307387716,0.617876287017431,4.24693876443935
mp-19795,InS,2.7995884965473,2.73948319031163,3.31695338676925,1.6903,16.5206503249395,8.36104633062687,0.821666633917674,0.461029139625387,3.38609887959172
mp-549166,SiO2,1.8177353190165,1.56890818405667,1.57319343375187,6.0011,16.255511183197,13.5323565233325,7.43678022883672,0.50666503177128,2.1081573738314
mp-2507,GaS,2.51672994776953,2.51673054179425,1.92769586294104,1.8889,16.2588189682854,9.93404031172488,2.89672884456754,0.279370285691423,3.92469573203224
mp-568560,TlBr,2.14836163156951,2.1483618689597,2.14836161993273,2.3494,15.8066208290683,10.2987518603406,0.511068063792154,0.352790207958962,4.79123233078956
mp-22870,InBr,2.51400352028393,2.71215316307911,2.62049238312192,1.5005,14.7309036920304,8.17958315804616,0.639607524602249,0.310575994891552,4.78328264405557
mp-2784,Na2Te,2.07866099448659,2.07866063848816,2.07866079964962,2.0247,11.5136849056653,7.71730074785957,1.66375011833365,0.231239086732334,4.92558020764113
mp-2400,NaS,1.89404305653277,1.89404340763352,2.25588345665285,1.2347,9.28315542910903,6.3950405578447,2.95803892207547,0.553132836386045,2.14594580405234
mp-27194,SnI2,2.84222949460454,2.52922973057016,2.70954359809913,1.8863,11.21769829282,6.08800627079802,1.03418403986968,0.57307598582003,2.71191518018961
mp-22896,LaCl3,1.90002008410438,1.90002013410385,1.99600486472353,3.7449,7.79251606160274,5.57375665417317,2.73863683378693,39.8573371729885,0.390234648945924
mp-31040,NbCl4,2.10715855834344,1.69610073403675,1.84327733941477,1.0915,7.0447346965471,5.16145462387135,486.021196426421,7.7693997119535,0.130767595905158
mp-568662,BaCl2,1.69288678298343,1.69288640493094,1.6928866618885,5.5835,12.4541799735974,10.1163005557766,1.42633421348152,0.450090851724097,2.9228716171407
mp-2472,SrO,1.94980677247772,1.94980659297275,1.94980708789357,3.3994,15.3387403994194,10.8804471735295,1.38127084844081,0.524273225139882,2.63137335786678
mp-1186,ZrS2,3.29968605476339,3.29968555623108,1.92577677574531,1.6182,10.4851758542438,5.46168184484305,5.26296679235343,1.44736655932135,0.880916878664205
mp-29422,HfCl4,1.7183666838018,1.58282179350677,1.637265583221,4.2156,8.99882488799224,7.5255137615287,22.1286258788706,16.2161924418693,0.106857091327194
mp-672,CdS,2.4994764911877,2.49947637316299,2.49785035780769,1.1162,16.8070234930225,9.67352289467803,1.37553061878265,0.141667100361543,7.78579409743739
mp-1602,SiS2,1.95401610279957,1.62356855722202,1.72182608006732,3.398,10.3306370684255,8.04118405549944,32.7594859942694,1.28686596954518,0.807607213134432
mp-341,PbF4,1.71456261186345,1.71066052447585,1.69014430153168,2.1212,11.5634301472697,9.32401256391751,6.18665535135901,0.836985723726533,1.35640173535451
mp-406,CdTe,2.97786816363653,2.97786790170417,2.97786775898461,0.5894,3.86881664333772,1.94519105307977,0.669702205736358,0.077568428936842,14.3850438969486
mp-23266,GeI4,1.83142863906842,1.83142863906842,1.83142863906842,1.996,6.99181665434923,5.25589278936646,19.5036049335893,81.9325610032534,0.063477732405756
mp-634859,CaO2,1.82909152860102,1.82909152860102,1.85825722923389,2.8343,12.9505634622542,9.69812823996977,2.11188876891037,1.9578385291394,0.984277137864158
mp-224,WS2,3.46243553875014,3.46243485281673,1.8605559652964,1.7916,13.0261135101696,6.63237090379342,1.09773947659643,1.0622214888997,1.85238620141911
mp-13682,PdS2,3.7784084665372,3.76114332484153,2.06916823143987,1.2952,10.8625868282621,5.17310522621995,2.13524507104015,1.76204075620563,1.0358540792392
mp-30930,AlI3,1.69573624717997,1.75245986829941,1.71139369228708,3.2704,8.39463971080474,6.71021392481737,9.81023646000422,17.976237474199,0.15756333579471
mp-25469,AlCl3,1.73534517027593,1.72689620417673,1.59751980895387,5.3872,12.9029394471909,10.5209869347997,4.44035588685577,0.960359681869296,1.26648370684379
mp-2758,SrSe,2.27509907037034,2.27509937365382,2.27509952529554,2.8006,14.1504375435959,8.78712973917806,0.827887291423005,0.39980127083881,3.70913656353722
mp-9486,K2AlF5,1.36654346802434,1.34214792776355,1.34214792776355,6.3615,12.8425746021342,13.7027338452937,60.3314245590525,0.63553168914834,1.59006077104648
mp-23846,KHF2,1.37495024273608,1.36904291021136,1.36880330946415,7.0115,13.7378943264217,14.3388933762481,32.9820847507311,0.584128127450922,1.74227266123767
mp-755586,NaLaO2,1.96686890005409,1.96686890005409,1.99010801716892,3.2411,10.770012943739,7.55315191956223,30.449843119515,0.469693390227759,2.16188937482314
mp-754826,CsScO2,1.81338451245179,1.81338451245179,1.81338451245179,2.9653,10.5622042816031,8.0151729721349,2.12667920221429,0.41424013803515,2.88427534206503
mp-7594,CsLiF2,1.49099604627242,1.48663746084915,1.4882735937992,6.289,12.3494517176345,11.5699683142525,59.2477509034033,0.507709763089051,1.98650752803586
mp-9636,CsSbF6,1.41378899415719,1.41461811101088,1.4131851223389,5.0883,11.9605668116365,11.9645099187534,25.502677041769,1.01751313811377,1.02199986265433
mp-755340,Tb2SeO2,2.36343771654766,2.36344180169515,2.36327470895789,2.4307,14.226663435631,8.56323897970558,1.67301907790362,0.654750227562646,2.12502178068454
mp-543045,Tl2CO3,2.104197229349,2.03191648450422,1.99222765265418,2.947,15.2664770876487,10.38925318246,13.9873761041033,0.757969651974463,1.39080707225064
mp-625056,AlHO2,1.69926486458115,1.69499445426821,1.70678909652013,5.144,18.1462842550714,14.6738063540791,956.280735014153,0.434917930288053,2.30033008953153
mp-34022,Mg2SnO4,1.86926467895801,1.90118262142278,1.83210274002306,2.5338,15.7487540261256,11.6230008897222,62.8467488499063,0.315408050225887,3.18640784377741
mp-10492,Rb2SiF6,1.37157067262318,1.37157074553229,1.37157073459592,6.9912,13.7298776802011,14.3210264857161,25.0573434669821,0.559019711555596,1.82875414748472
mp-9143,LiPF6,1.36951639274599,1.36942367804854,1.36992342121741,7.5394,15.1972709151973,15.8837736186671,21.0708871973699,0.887978989771054,1.17361161753649
mp-9144,LiAsF6,1.41666840156757,1.41644722810276,1.41766292185413,5.0458,13.1960110077125,13.1624019809743,23.5412757679311,1.37601247407946,0.769216179276299
mp-625359,NdHO2,1.98184222126788,1.98914093769144,1.90904431064342,4.3352,14.878125404252,10.5040973566623,2.4203747019342,0.503590868752438,2.39889811293516
mp-23183,NdCl3,1.91102169270786,1.91102171887187,2.00230866501646,4.3378,12.0741351465313,8.59810970456091,3.04722655487913,1.68827465654125,0.920487947961976
mp-23739,SiH4,1.47673513535773,1.49253543006523,1.49566462149775,6.5621,10.9003548210141,10.2150380224466,5.40165535299563,2.79418533774573,0.543014501290451
mp-22888,CaBr2,1.78612877475282,1.75616287684258,1.7647025896734,4.5304,9.75557505280166,7.58292750994239,3.27368431213661,1.06236019196183,1.24676655914566
mp-573763,Cs2Te,2.02321552238015,2.02194587217363,2.03587542349722,1.774,8.77704282319762,6.01383643911438,3.01543872295328,0.284611844853391,3.84518391403606
mp-23237,BiF3,1.83327932405294,1.91154462411946,1.89908234155341,4.7036,14.3145088225011,10.4923294284287,4.83067237850247,2.46777111566176,0.612234486327612
mp-1873,ZnF2,1.60988097386111,1.57670462040295,1.57670462040295,3.48,16.1493572907685,14.0425573587626,3.48856503852752,0.443457164986697,2.54166004136215
mp-2231,SnS,3.85966037106894,3.58669910642083,3.6031223612306,1.0693,15.3656975066312,6.60932394183565,2.21539822750663,0.269660996275563,4.15974592202461
mp-567431,ThCl4,1.90506541357508,1.91432742497202,1.97933617407453,3.7163,8.67979855007674,6.20578727889787,1.57327983249433,18.5210102801454,0.68960756927622
mp-2530,Li2Te,2.22881100813864,2.22881064920284,2.22881056395558,3.1189,12.9156733903845,8.15845379275649,0.751150133514573,0.379994749650507,3.96290708990321
mp-27891,Bi2SO2,3.3973619662909,3.3118360194913,3.07072890532525,1.1538,13.8079308473855,6.49070164256057,6.53336111889831,0.241251560144705,4.29811148802984
mp-23260,BaI2,2.05728248424955,2.05525712746605,2.0590599384185,3.4684,10.5678888397067,7.14761682180423,2.10681829053712,0.717962093143125,1.86748057697572
mp-754658,TeO3,2.10607710922464,1.948113443822,2.14366443036218,1.2489,11.6301874562007,7.83704685774929,4.60102597012992,0.465446713861576,2.36581647840596
mp-675011,CsPF6,1.36688566456745,1.36471084116746,1.3668856609095,7.2444,13.273093616723,13.9230214397787,15.4102944344167,0.625343811622923,1.66401201295695
mp-27425,Sr(HO)2,1.66192548569423,1.67141098775855,1.64059637327406,4.1898,13.7254719692125,11.3921704539409,34.9893558309767,0.465703094730189,2.17587098293517
mp-754605,LiLuO2,1.91607855788848,1.91607855788848,1.93866285619754,4.504,14.4700603164809,10.3912631354135,55.2660560641508,0.461754126270133,2.18374900259947
mp-753920,Tm2SeO2,2.35397665663872,2.35359161283346,2.34410394607406,2.2031,14.1502741412769,8.55502894427838,2.03194841152475,0.463162714190615,2.6512069212825
mp-675104,Na3YCl6,1.60126434732058,1.59681896594448,1.62237430329749,5.3209,10.854532788273,9.31581935295144,8.87166188485185,7.64279927226907,0.243560564851871
mp-30106,AsCl5,1.56275475043271,1.5511113789796,1.66720703273469,1.4701,6.34041833092296,5.49066562599352,37.021461130997,5.04801931182739,0.225108858498538
mp-23024,SrBrF,1.79505831938687,1.79505831938687,1.7550046467175,5.0003,13.6599387460863,10.5437945399943,7.71475353508434,0.341562143461159,3.05734669143836
mp-13948,Cs2HfF6,1.49697688358906,1.49697679674736,1.47373202109474,7.2342,12.7722717523236,11.9603151144773,37.5373716945594,0.539892471306442,1.87886079708614
mp-568264,SiSe2,2.181372941521,1.77301540038433,1.90649940991336,2.2991,9.46326968295432,6.70084186055674,8.01315769926043,1.24926102097484,0.925267974868271
mp-4608,KPF6,1.36334854677738,1.36468668198968,1.36247530252845,7.0206,14.3527909741991,15.0978372589565,7.58140527115687,0.667773629452185,1.62941513035088
mp-23072,BiBrO,2.59166688060021,2.59166688060021,2.06459863896109,2.5129,12.3964271729949,7.33003564986059,2.68922714719157,4.54153752551362,0.592043795027912
mp-9922,HfS3,2.77562403614034,2.6814651144477,2.06844354286019,1.1509,9.9093380648745,5.68618367775897,16.599652822964,1.54924857713609,0.705716432861189
mp-841,Li2O2,1.66066281947902,1.66066264786079,1.99057081260627,1.984,11.2530775422123,8.73901854268089,3.91540520737948,1.60620809986273,0.877985741197022
mp-27439,TmIO,2.18470862130399,2.18470862130399,1.89903386752317,3.681,11.8131641401426,7.88250078524643,7.6589105495248,3.23161261470496,0.440009903087087
mp-626173,HoHO2,1.88783652893994,1.95866088948547,1.93929472747182,4.0204,14.884195374236,10.6634152218148,4.97359221449733,0.435670039613208,2.49637697286139
mp-28243,RbLiCl2,1.55997427222374,1.55645858602148,1.56209023426945,5.1482,12.0334583480794,10.6758621434636,19.4710178941814,0.464914986486747,2.20228926111657
mp-639463,SiO2,1.4260269597732,1.41962060776815,1.41032752933494,5.3927,13.0065829742237,12.9524457409583,39.6482591400628,0.602558730124708,1.68481105325998
mp-28253,LiBiO2,2.59919887080616,2.27451995374848,2.15943431249946,2.0839,12.5618732433666,7.61099071621482,7.2171056202059,149.729454535754,0.145238414076532
mp-676861,AlSbO4,2.04909897515957,1.99337545133876,1.99337545133876,1.601,16.0977416952271,11.1027192449631,1.47551850141311,0.289077364167334,4.13700943880818
mp-3448,KMgF3,1.43641626974913,1.43641626974913,1.43641626974913,7.2765,15.4850337520011,15.1714823098723,4.02803095314311,0.530946014120077,2.13169091370411
mp-1105,BaO2,1.86843848975555,1.8723742174042,1.88854478898437,2.2422,12.2100470331976,8.97130193735124,5.04484586180708,0.810320273935001,1.43230205783709
mp-755689,ErClO,1.70496517853005,1.62015633504918,1.8110156791149,5.2496,11.4673488001658,9.20862365197442,5.78744697648179,1.16173278955004,1.03357090149238
mp-545820,SnO,2.68621032311321,2.68574774318066,2.59904831236358,1.7537,17.3244625375933,9.50262688729173,2.10268461823074,0.352068146664856,3.31594169814288
mp-1415,CaSe,2.36960617191971,2.36960633650402,2.36960620146049,2.9933,13.6814536251451,8.21751710230222,0.76712533370183,0.41940602823651,3.68789228826614
mp-1000,BaTe,2.44591241053313,2.44591224290652,2.44591207936835,1.9738,12.0548344780099,7.05796015078231,0.637016383287091,0.386262589445743,4.15873071851306
mp-30034,MgBr2,1.79718380807306,1.79718384980502,1.62052939498178,4.4707,13.0235381510976,10.299700578035,14.2176705485814,0.348510486348121,2.93968913036911
mp-22897,HgCl,1.93858454032833,1.96648917871419,2.38274452470255,3.1526,13.8252334768558,9.20052919539804,2.20365564907674,1.00373246704641,1.45007282057626
mp-23209,SrCl2,1.69683720491979,1.69683683953408,1.69683708705344,5.5142,13.4383506727814,10.8897353379602,1.2055992529747,0.398753819362085,3.33727599217092
mp-23225,BBr3,1.55082309758399,1.55082316206588,1.36150722730362,4.0167,8.87890529140874,8.32471753928956,284.908939805725,10.2389417229952,0.101176236933073
mp-23176,SbCl5,1.51883226855371,1.51883218296163,1.59675078518847,1.8233,7.04682663858463,6.31967916253244,31.5271889434288,0.897584565402756,1.14581980793091
mp-27976,SmBr3,2.09022364592883,1.73868882207254,2.07777775038621,2.9947,9.96833692577763,7.00914717949566,4.0515380223293,2.59854275104248,0.631650923164874
mp-8723,AsF5,1.33867186793478,1.33867175588342,1.36349441876379,4.6001,11.2188537075835,12.0141620111539,35.781833025267,1.12423140451558,0.917443732266628
mp-27666,IrCl3,2.26889391774935,2.23871332242429,1.77737267054493,1.9952,8.33825664073138,5.55117432354028,4.40259546375185,3.17705453305106,0.541895694731327
mp-1253,BaSe,2.3006082021935,2.30060812829999,2.30060798485965,2.2017,12.4485050120935,7.65955829566252,0.762442593878146,0.417090814448934,3.70913354714971
mp-27257,PBr3,1.65701065778105,1.48846999633852,1.67913910680444,3.3592,7.86795900796177,6.74628037298043,7.32408913208551,6.21742037116424,0.297374158535502
mp-2697,SrO2,1.82208945718919,1.8579080170988,2.02050980200542,3.0395,13.5832278547353,9.8647749126633,3.82423713460641,3.87632706166159,0.5194662282491