MP_id,Formula,Ref_index (1),Ref_index (2),Ref_index (3),GGA direct band gap (eV),Effective_frequency (eV),Average_optical_gap (eV),effective_mass_valence,effective_mass_conduction,effective_mass_transition
mp-559257,AgTeO3,2.15420859017877,2.3873684529205,2.38205894343528,1.4766,12.0107612110657,7.371086783606,9.3640768971609,1.29407214554909,0.87954553524803
mp-4624,TaBO4,2.27792572749859,2.27801458731063,2.27795290557114,3.4688,16.1320270259867,10.0072467946776,2.56431500965257,4.88137948389641,0.594827812405539
mp-19514,Sr2CrO4,2.03689161469137,2.00845200838855,2.03516354871052,1.9898,17.2662763147956,7.69478036437954,38.757307563455,13.6735375494969,0.098935549679029
mp-561864,BaCr2O4,2.19496199967106,2.18146110210565,2.07243137642721,2.7031,19.236862658294,8.03379782083216,9.39931971408769,1.15928166844041,0.96899381197386
mp-698206,Ba5Re3O16,1.95927409006499,1.95930893174099,1.85291711363461,0.5103,1.06686198835409,3.79315667674882,170.274291254073,95.3575977972568,0.016359718537266
mp-19202,MgCr2O4,2.12575575737195,2.12575576207616,2.12575584910403,2.8589,21.6093468463653,8.79177271992579,0.000985442326029,0.000985340124655,2029.65071531335
mp-566366,Cs2V4O9,1.91565448084982,1.91565448084982,1.84685781261038,2.3602,16.2984455446125,7.66850258501736,4578.55445453724,17.5583603917857,0.0571713355418
mp-19188,Ba3Mn2O8,2.06712648379338,2.06863405415264,2.05290145891126,1.6486,16.2996982968325,6.64920051649417,7.90861178372953,2.93197420958956,0.467511561639295
mp-554728,K3MnO3,1.77178319215416,1.81060660553307,1.81381069850191,1.7271,18.2306475235296,7.89765670849126,67.3401492616599,0.885579962152503,1.14405349007323
mp-19596,K2V3O8,1.64391191674007,1.93460853404507,1.93460853404507,2.0133,12.7321825193362,7.96052963883846,173.734498047937,47.8056407397573,0.026673942840315
mp-19702,Mn2Te3O8,1.9183190454145,2.02769228434691,2.12579915090772,2.5373,18.4790084260917,8.74828127455222,7.30206612017602,2.36521339966731,0.559742372258054
mp-25050,MnSeO4,1.84618931044463,1.81318951022776,1.85392953210202,1.2126,16.2466888748465,9.47383946499308,1.93717701505279,0.586731354052192,2.22057261396995
mp-560707,Cr2Te4O11,2.13363649668822,2.18511489400443,2.18984717046647,0.5996,1.20913364221087,5.33560875681012,13.624534218776,3.66512907795333,0.346238691355131
mp-19401,CrPO4,1.90415099716383,1.87927886169137,1.89856185572132,2.4781,21.6739060800579,9.02223299645167,11.1511969524522,3.47701436807459,0.377279539961092
mp-558444,Mn(PO3)2,1.63406099029381,1.65011761398998,1.64558553712653,3.8754,16.0737783447613,12.0375806103107,48.8300685275005,87.1259510226744,0.031956821408946
mp-19418,VCrO4,2.30671980526461,2.31106827895673,2.21067553250132,2.0965,24.2453493434906,7.22341739732411,4.24096980697897,3.4025788648284,0.529689854587953
mp-18725,YCrO3,2.30787408668671,2.32955764255792,2.2842873877864,2.5189,19.1132787273286,8.69499740513603,3.63208050740636,7.85712751218397,0.402597269436187
mp-565704,CsMo2P3O13,1.68197665263225,1.75477601989542,1.78960351474845,2.2391,15.9192166715073,9.35940294288989,495.034291326083,189.401390925887,0.007299854350966
mp-556834,RuCl(OF3)2,1.6786865341689,2.20152027699043,1.63031750281962,0.6464,2.43070771190074,3.5386785437561,42.1386657811399,82.3631003188099,0.03587253314036
mp-19599,Ca3Cr2(SiO4)3,1.94518113295395,1.94518115608804,1.94518101471303,3.2229,18.2385595310259,9.95483223660951,6.34836788476064,23.1501186924657,0.200717124710121
mp-19604,NaMnAsO4,1.78323984645925,1.77949969935373,1.80380361735972,1.7506,16.2614912267977,10.3133440210303,4.40550988387016,0.399917014995475,2.72750724568088
mp-567053,BaMo2(PO4)4,1.82249379697161,1.85299052884789,1.79388041407447,2.3677,16.9556674708979,9.37098800885057,9.0581991973175,4.62171314816757,0.326767202958243
mp-18860,Li2VSiO5,1.83905663316821,1.89323821005176,1.89323821005176,2.4406,18.3327187042681,8.54993310390771,59.5504580492987,4.57056256952251,0.235583929481942
mp-19619,NaMnPO4,1.72781366761581,1.70391140321321,1.72067564927269,3.051,17.8867382083796,11.7535769242637,5.88234841122559,56.1744085719016,0.187801831466209
mp-565804,AlMoP2O9,1.67877998856312,1.75697462417646,1.75697462417646,2.8048,16.2514940477478,9.98418288084835,0.231816299838976,0.23180527608862,8.62772616709745
mp-541234,Cs2K4Fe2O5,1.82391179611296,1.84444791468884,1.84448227153313,1.5827,18.5248503875025,8.42690523819652,84.4788583950468,135.336086816994,0.019226293398234
mp-628967,SrCrP2O7,1.68293492744075,1.70690546604081,1.69478388887787,2.9761,15.6489051586471,11.1724150667931,0.022335358700298,0.022343137145423,89.5285314674217
mp-645568,TlCr(MoO4)2,2.09537288328355,2.03850719400251,2.02159741293859,2.7802,16.6168077905868,8.52341285348365,17.0188839126185,13.9346230189952,0.130521952053175
mp-566617,Ca3Cr3(PO4)4,1.73122595290158,1.71368514902826,1.73482634577643,3.2727,14.639163549368,10.3439874848874,310.795317272308,67.2862381751238,0.018079431733852
mp-565509,KMo2Cl7O2,1.63622878595874,1.63238505874074,1.75610172826064,2.6664,12.2131153441877,7.22790448304373,47.3906658085737,164.134230118086,0.027193776091525
mp-24921,TlCrP2O7,1.85473459826467,1.85071173876431,1.86821946783562,2.8233,18.3799907694152,10.1358313586023,6.8270092898037,11.1448570398065,0.236204509114112
mp-628618,Ba5Os3NO18,2.07243792910668,2.07243784225245,1.97860985542881,0.7668,9.32330904683259,5.02893757890232,40.5112259832696,37.9696152246114,0.051021364253398
mp-19622,Ba3MnSb2O9,2.04611095984553,2.04595745801324,2.08869531286878,1.7706,16.7177443203676,9.63309497967022,13.5702843200802,0.368756767061061,2.7855050649205
mp-645371,CoAg(NO3)3,1.70376953547127,1.70882833836521,1.66197369714445,2.4838,12.0051618272488,8.23873414441911,0.176174872420565,0.176491589272604,11.3421707492969
mp-19166,Sr3NiPtO6,2.16985437990663,2.17342919139318,2.16659632834545,2.5422,16.4715493567342,8.7592637009805,21.9290431280142,10.6493020373987,0.139504492609637
mp-555689,Na2Mn2Si2O7,1.67072080252806,1.68180745925329,1.69434260998182,2.456,15.8854291519375,10.8047111271624,14.040309225953,0.451110821567216,2.28797369383834
mp-616689,K2NaMnO4,1.75716740807471,1.75055876222422,1.74731504028323,1.7806,15.620741714675,7.38322189941221,6.77520105208571,5.35528058485429,0.334328675059738
mp-565979,MnBiAsO5,2.06168711738712,2.11475603557479,2.13303189849566,2.3686,18.3552433102054,9.03762556473482,13.6461994598624,1.5482684947373,0.719163282700294
mp-18997,LiMnPO4,1.70159954748466,1.71050234434215,1.72177857751803,3.4115,17.3975118318248,11.8454353700374,37.1618559253604,13.5770179882814,0.100563188703971
mp-582483,Na2Th(PO4)2,1.67114506551646,1.75868879282265,1.77525459300913,4.9485,12.2604540007514,9.71443682073959,25.8938917813667,859.419325240628,0.039782722841989
mp-557367,K2CaAs2O7,1.66060467601413,1.66639724555701,1.66267491410678,3.513,12.8228353582453,10.6078568432185,15.9434816002326,0.544152192461527,1.90044272066712
mp-23587,HoSeClO3,1.83742088537167,1.78660495633478,1.90259908020581,4.418,12.2917651579098,9.18873610593538,4.70136485664998,11.7819600013096,0.297579710757642
mp-558458,Mg3Si(O2F)2,1.6151434580247,1.59034164882896,1.58678790958338,5.0611,16.0319811068169,13.8477299822249,7.73690113752604,0.438404271911628,2.41025038550514
mp-560658,Na5Bi2As5O18,1.86589154829535,1.83636419590451,1.87296604881135,3.2173,13.0646252214704,9.68629724401669,13.4171941765104,3.75720313737571,0.340686656683726
mp-6687,Ba2HoSbO6,2.06625855594115,2.06625838413302,2.0662584639875,3.4155,14.662673476301,9.87922201483346,2.24517309575534,0.39157331483905,2.99920013196211
mp-540868,Ca3Si(ClO2)2,1.70267052303139,1.73309569556906,1.73277881162023,4.3804,13.1835871849313,10.5198621263048,1042.95436737409,0.570146588038775,1.7548937166897
mp-6419,CaSi2(BO4)2,1.67600841286671,1.67218910413864,1.67808629694661,5.6645,15.2785500356626,12.5436727331677,23.0107039074668,0.534464275349064,1.91449048129273
mp-549475,TbBi2BrO4,2.48650270058168,2.48650195857554,2.29981136835176,1.6449,13.4185208168605,7.91257025710097,1.04573580874944,0.318304964022994,4.09790570515957
mp-565913,K8Zr(MoO4)6,1.66673680885736,1.70792448018055,1.68484520357213,3.7361,11.151995848858,9.09374762571444,98.6951188611829,52.6335905680699,0.029131487173511
mp-554227,CaU(SeO4)2,1.89154222527545,2.0421011532243,1.85806954121744,0.5138,1.57043644562669,1.12405212346883,15.6652407128514,9.16325999868419,0.172967063771308
mp-18247,Sr3ScRhO6,2.21522146522645,2.22479241503561,2.20688224878447,2.2781,12.1073422214976,7.68586330049034,4.07105825626995,8.15047998043784,0.368328537602402
mp-15171,K2MgSiO4,1.61856000506623,1.61812591599047,1.61764272322414,4.0029,13.7107368907361,11.6782125266849,17.6050384748722,0.439910505497212,2.32999155249905
mp-7971,Ba4Li(SbO4)3,2.11777701847952,2.11777686029478,2.11777710583527,1.5406,13.8528469790857,9.13704222369927,2.39341137718348,0.357355842865765,3.21614486077197
mp-560833,B3Pb6ClO10,2.07108451058859,2.16877739291058,2.17630936909255,2.816,15.6775668572962,10.2538785551041,13.2093904553776,0.626677453714942,1.67142093344461
mp-510724,As3Pb5ClO9,2.24789598958671,2.24789617865239,2.26468511276954,2.7733,14.6707099740616,9.1824934386951,26.3089281469693,0.663897298260809,1.54426698145547
mp-18743,CaMnP2O7,1.71559537478976,1.70480256921439,1.72038200990361,3.2089,15.3763977673989,10.5859020758872,14.5950509941425,74.5364850445394,0.08193262431056
mp-559903,NaLa(SeO3)2,1.92410456576559,1.8945059197585,1.88817133756447,3.5937,10.4960824951985,7.61502092067289,9.21164450432816,2.51843028958453,0.505630983050682
mp-19449,NaVCdO4,1.98349662465052,1.98623878473863,1.92026945244671,3.036,12.4323597979541,8.76397001184532,1.93732929105786,4.8471547590509,0.722481107563559
mp-6709,Ca3La3(BO3)5,1.91132851964282,1.91132857457843,1.88519930776563,4.1744,11.559948139036,8.38541239364107,1.97861584086056,201.306733504313,0.510371361556061
mp-540621,SrGa2(GeO4)2,1.7491529521457,1.73720191399849,1.7565893600953,3.0761,15.8260743278349,12.4495530164383,28.5901027359517,0.399971223367706,2.535157005982
mp-18705,TbSr3RhO6,2.20609978695434,2.21113998426151,2.2015267316115,2.1709,12.6146651907751,8.03643155285951,5.36013268550831,6.07358364306172,0.351209986122459
mp-546672,LaBi2IO4,2.66628987171313,2.66556081528822,2.39191480408479,1.6098,11.9290980821817,6.70620101077515,8.40554027183536,0.363245371158207,2.8719292155721
mp-558257,DySeClO3,1.83454774535851,1.78488556495928,1.90268364948039,4.4275,12.2258480512384,9.14651377424153,4.84758965224012,9.35249330352913,0.313211446944147
mp-554363,Pr2Ti3(ClO4)2,2.2767367919898,2.13305869820781,2.22111613609014,2.9722,11.1428503438508,7.08787596059046,4.9432494677679,276.630040161452,0.205911018459663
mp-561268,As3Pb2ClO6,2.14958520184709,2.07831602264911,2.05828146034501,3.4101,13.7988128032938,9.18500895526057,2.94519886313966,1.08812741093397,1.25854567228075
mp-21567,SmAl3(PbO4)2,1.96558124482302,1.96558124482302,1.96558124482302,3.1435,14.1581584132903,9.97027685400232,4.11051768792637,0.802557074693281,1.48929566041084
mp-9702,Sr3BPO3,2.22544651250036,2.22544682030373,2.11031383211123,2.2439,13.083189414426,8.3963617836557,8.99718980048868,0.311219119490099,3.32431601443246
mp-540686,CsPr(SO4)2,1.67914813223849,1.66679091070236,1.56330761208407,5.4136,13.9060291503485,11.7026689386398,426.031235751446,19.4916500455507,0.053651265539018
mp-6660,BaNaBO3,1.76710638898738,1.77605535668233,1.73270462572246,3.6487,13.5484526277009,10.5921419153318,13.4908855977111,0.602782413308156,1.73309753544255
mp-540951,Na2Sr(PO3)4,1.56377644182281,1.6151076218011,1.6151076218011,5.3329,14.6337093199712,12.6349968855351,3.21590737780978,0.505162605050162,2.29051484993316
mp-14721,KSiSbO5,1.71557896641338,1.74057411218253,1.73942138367907,2.8295,13.884423900363,11.0213005040212,24.5737118813704,0.486872916528735,2.09461795821974
mp-9497,Pr2C(NO)2,1.93223730685441,1.93223726545163,2.23912017989209,3.808,13.4368371945113,9.17667285883175,3.36193130028541,2.99343031973365,0.631512976778001
mp-16596,K3HoSi2O7,1.66251186762682,1.66251185258933,1.66229771701702,3.7221,13.7016061173598,11.3404221585227,4.23669181497154,0.556595216351413,2.03267100837185
mp-616059,K4MnMo4O15,1.82115809582804,1.82115803817242,1.7006363750079,3.1095,15.4857845050972,8.9430828233303,829.294978454993,38.9340880534774,0.026890277164782
mp-566695,NdSbMo2O9,1.94753218715378,1.95290759125976,1.96983551851417,3.2838,11.878762834143,8.3990821809134,22.3793047774115,3.38426998227465,0.340168840418715
mp-562137,KLiCO3,1.44745650366427,1.52872929258257,1.55531606755669,4.6045,12.7972065791825,11.7813839921211,18.5688979011816,0.739717927590552,1.40572014673089
mp-7645,KAl(SO4)2,1.52225312612588,1.52225315568732,1.51003099968179,5.5292,14.3771565111831,13.1568169813473,3.44787149445739,0.545475033807956,2.12329848359212
mp-556450,PrB2ClO4,1.87599050370731,1.85556355320964,1.81788933931634,5.0763,14.6521954251512,10.9107800393972,45.0840754781058,4.5336639564746,0.242752929514113
mp-556855,Ba3Bi(ClO)3,1.841584440095,1.8532513644943,1.79347356545894,3.9327,11.3624148564617,8.55020026093992,26.6355596809537,11.0563037506293,0.127989935565688
mp-565363,Nd2Te3MoO12,2.08832579354851,2.24782038650778,1.99308420293775,2.8992,13.0936912731651,8.66455728689169,80.7616233997436,5.10273711860049,0.208355373111053
mp-9499,Sm2C(NO)2,1.92371540514703,1.92371511664279,2.23347724188092,3.8823,14.0187158035588,9.60549494208006,3.11239819323757,1.71028007649792,0.905995205024134
mp-583574,Gd2Mo(SeO4)3,2.08885254864962,2.13507657005551,2.09493556941496,2.775,15.8806976048355,6.91832334975862,7.82183583291039,86.0112272082935,0.139473613442575
mp-540945,Na2Li3GaO4,1.72798989001672,1.7340279669025,1.72908339301492,3.2395,14.5814845884117,11.5845988410724,4.49283002055497,0.460054755245863,2.39623116691031
mp-554822,CsSb(PO4)2,1.66757510175704,1.66757533263118,1.66125969372642,3.0488,13.112044533248,10.8318584753617,5.19987276855785,1.71205764759403,0.776404879312767
mp-504593,Pb2CCl2O3,2.13044936574423,2.13044936574423,2.15289852988941,3.2488,15.4892889750918,10.1339353612428,2.54121952529225,0.504337577078621,2.37631076507706
mp-6596,MgAlPO5,1.55808117567731,1.58545244331074,1.57977731975111,5.1092,14.7255942077566,12.9250215775193,11.7804853807555,0.485391332071404,2.14507950720168
mp-558862,NaGe4(PO4)3,1.75155283677085,1.75123692286338,1.75287305301896,4.3844,14.3266257098855,11.2430129066642,3.93803580200798,4.17959727588808,0.493191200648167
mp-6494,K2Ca(CO3)2,1.65878175176845,1.67584260000753,1.52332999379649,4.3437,13.6912168334394,11.6522029063709,9.46011359126497,0.706164778002479,1.52180705791378
mp-578796,KVCdO4,1.9028409523657,1.90793704822775,1.91411714636278,3.0609,12.1714155496184,8.80478162861045,38.4007473415793,94.330403705778,0.036642195793937
mp-541096,CsUNbO6,1.72741554641609,1.97624557178505,2.00339238043874,2.1266,8.07065723384311,5.85509198329897,26.0512860698214,2962.77598791865,0.038723342149421
mp-6226,NaSn4(PO4)3,1.84621736260929,1.84538506550801,1.84974128190945,3.7392,14.5790428338891,10.87126244297,3.41790011354194,2.31724232470515,0.7241247468194
mp-557126,NaPr(Si3O7)2,1.63184324002032,1.62402243211108,1.622654380945,4.7893,14.6076594060078,12.3758388028095,47.3686555636365,0.529128514492805,1.91101104526244
mp-557656,RbNaSi2O5,1.58582447956891,1.5795019056652,1.57536718576972,4.4434,13.9841154278743,12.2240495866423,13.8483730559338,0.481107441298213,2.150748443166
mp-547125,TbBi2ClO4,2.39578821267657,2.39579250562314,2.23717734880362,1.5925,13.2896302411485,8.0560277451268,3.13361132195196,0.324372437865655,3.40199661227729
mp-8515,BaSm2PdO5,2.47957762128956,2.33286502824317,2.33286502824317,2.2304,12.848012933779,7.68498110178529,3.63283366012351,4.57369418527777,0.493908854389828
mp-554847,SbP(Cl3O)2,1.60637872246865,1.58968522041315,1.60429632861264,2.2595,9.11805834086546,7.86125424591105,26.5180791461181,3.43265464700499,0.329029844739265
mp-554359,Cs2Si3SnO9,1.65922813681543,1.6657323554521,1.66049807889079,3.7933,14.2969142874115,11.837761519642,33.7397490447006,0.535582925042389,1.89676312972413
mp-557330,Sr2B5ClO9,1.66498118307685,1.64958559947643,1.64867515902921,5.3755,15.0308071384912,12.503796418898,19.9965082767373,0.600236810004763,1.71601785145279
mp-554826,Pr3Si2ClO8,1.93499429198125,1.93389657686237,1.93204267810005,5.1502,14.7850964134283,10.5672297147277,5.65386077754815,1.60192435439007,0.801119492890596
mp-6585,CaMgB2O5,1.72788116778904,1.68016089705718,1.73587353802056,5.3121,15.0214365856729,12.044219325533,16.6868667036177,0.514778105947524,2.00251192704308
mp-23126,KAs4IO6,2.16672108034237,2.16672087034763,1.77251943853939,2.8112,12.8574198525366,8.77796900945978,2.17976366868473,0.628967236947666,2.04867326416074
mp-561514,NaSrB5O9,1.63779478567982,1.55944923290244,1.62868832193271,5.2347,14.8736075889368,12.7494142567763,18.8090706976964,0.624508431376523,1.65442524391134
mp-554129,Br3N(O2F5)2,1.56875425099026,1.57493194456142,1.53685880288334,1.4972,8.26321269090866,7.32738548804619,4395.8416146256,254.975319595408,0.004149435939836
mp-14384,Ba3Ho(BO3)3,1.89437990909955,1.89437990118139,1.75458612783756,3.8221,13.6226315358583,10.1546284425803,690.267847732136,0.629181878568803,1.59081425904942
mp-560642,Na3SbP2O9,1.64356387767558,1.61560411301779,1.59941974478246,2.6621,13.0901337833298,11.1390733541421,63.5003740475402,1.15792606324471,0.879360937647116
mp-555237,PrSClO4,1.80170592495002,1.82825899423468,1.80362567069778,4.7016,14.0534680716249,10.6768794008556,6.67433591164498,1.43034244137568,0.84896091847703
mp-14555,LaCd(BO2)5,1.85236950957416,1.81177850467434,1.8628503724132,4.4524,12.9923753071112,9.71185848273056,11.5441068763042,9.94299513120089,0.187197601516116
mp-9625,LiMgPO4,1.64644258934225,1.62839519466252,1.6260414877856,5.4297,15.9835255039046,13.4754546856793,4.95009086726729,0.501113388538702,2.19757283448209
mp-18498,Sr3YRhO6,2.20212775742008,2.20767415847539,2.19714583494132,2.1918,12.577236775058,8.02461699722727,5.78269568221094,6.31788494699291,0.331210547886957
mp-13038,Dy2C(NO)2,1.90297533877872,1.90297572501596,2.22042756243026,3.9798,14.4313190747605,9.9672326668161,3.02944155207383,0.797463120160849,1.58407032623532
mp-558162,RbP(OF)2,1.4510927055154,1.41526144934425,1.40515270344543,5.2329,13.1505364300856,13.0329660360752,36.0328048200077,0.564252538666907,1.80000858209386
mp-6032,SrSi2(BO4)2,1.67038746702674,1.6583987729132,1.6647532760142,5.49,15.8287446551956,13.0839633242845,56.0522781051604,0.520807893017503,1.93793427585223
mp-6075,Ba2Li(BO2)5,1.70366346442013,1.68933953070423,1.70810361219687,5.197,14.4436887357789,11.6796047289068,8.18331251530888,0.67442107167044,1.60495310032618
mp-551900,PrBi2BrO4,2.50666919436929,2.50677716002041,2.28407076729247,1.6367,13.3122441968761,7.82856327204346,1.20796460943029,0.37316191485538,3.50764069997932
mp-6648,KLiB4O7,1.53878030595664,1.51321602886039,1.54395563731605,5.0827,14.2227948498775,12.8784947817513,66.7217627206538,0.679480174069044,1.48670089999091
mp-554057,KPr(SO4)2,1.70791089053264,1.64805626420945,1.67863103450401,5.6005,14.703782032109,12.0511628132995,33.3872315710634,23.5692616551625,0.072379712729083
mp-504849,Cs2Li2SiO4,1.73884519149923,1.72931537898673,1.72491056579754,3.986,12.4215765126664,9.86486335076082,13.5257331415307,0.480499395916483,2.15510121486337
mp-555232,LiU4P3O20,1.92380784643373,1.92531418215314,1.91083300159904,1.8184,7.28618208990728,5.24138702785499,121.054904419036,71.2859205352621,0.022288729990298
mp-667360,CsSbOF4,1.49592836392656,1.49486397039998,1.45277166822595,3.6068,11.8287065027046,11.1501087279998,1002.90237583979,0.939199243783852,1.06573390880377
mp-554774,RbLu(SO4)2,1.62672020028031,1.5676626008169,1.6073930259896,5.903,14.7228302096037,12.6893896195496,30.3049492021268,0.526591050683849,1.93200473690859
mp-555661,Ca9In(PO4)7,1.69443140315564,1.69472668002838,1.6919032951088,4.3431,14.4633455510331,11.7426243303108,68.3139787773196,1.0954510361311,0.92750428738807