MP_id,Formula,Ref_index (1),Ref_index (2),Ref_index (3),GGA direct band gap (eV),Effective_frequency (eV),Average_optical_gap (eV),effective_mass_valence,effective_mass_conduction,effective_mass_transition
mp-23251,KBr,1.57817166366654,1.5781719076197,1.57817177772256,4.3102,13.3518357824002,11.6883013740193,3.46853849789387,0.40711005562039,2.7446441134482
mp-23800,KHSO4,1.50940620443935,1.44955286899099,1.45366942253045,5.4306,13.6133529861601,12.9433255985078,233.288087638411,0.524665202117844,1.91026391155807
mp-24303,Mg3P4H48(NO15)2,1.52522704211537,1.52170811261556,1.51609348326546,5.42,14.9603873840628,13.6605897528437,21655.1201745768,0.955947285931141,1.04612896431309
mp-23276,InCl,2.4066714794504,2.4066714794504,2.4066714794504,2.1888,14.5992635760698,8.6594432519849,2.34459575193188,1.11126126912984,1.32639114620444
mp-769366,Nd3SbO7,2.11193295821624,2.09786634941314,2.11261265498434,2.8848,14.6309851951982,9.69081902297102,2.73586748758653,0.59891730381922,2.03519437182787
mp-755293,Sr4Sb2O,2.967797550373,2.96749882224071,2.80949544224581,1.1075,10.3461024429669,5.28629106033938,0.916963557956244,0.445197732349471,3.33674881270739
mp-1029,BaF2,1.52236183281111,1.52236186565481,1.52236201345147,6.6825,14.0095808121354,12.7790580364501,5.24069874239356,0.506725225323079,2.16427037577677
mp-1346,B6O,2.37904642661719,2.36320621613942,2.43347780758321,1.9307,18.6615765858128,11.1240556034956,0.598079902895491,0.367662324956495,4.39190445265633
mp-756919,Mg3(AsO4)2,1.69153726828586,1.63910122628226,1.66043113076092,3.678,13.4300250777348,11.1069258589318,21.6482891014658,0.477491535138251,2.14047099078632
mp-620029,MoCl2,1.96315501170947,1.98144529321402,2.01540577055838,2.4538,9.40442690054554,6.55963290916929,20.0857059227703,26.6958393435976,0.087245670216658
mp-583646,Na2Gd2B2O7,1.86982057427979,1.84843530857858,1.82554684136014,3.234,15.4814542661999,7.60969651241847,10.2564570877086,12309.1247420549,0.097580795356798
mp-757723,SrH4(SO4)3,1.55289843518499,1.50493090539068,1.5251772060977,5.8908,14.2068178065099,12.9063349969807,160.25806122976,0.585345727783103,1.71463200647932
mp-600005,SiO2,1.36513990125555,1.36513990125555,1.36513990125555,5.4398,12.0743808195358,12.6792284313387,854.746218957019,0.655393731772791,1.52697031029265
mp-754535,LaAgO2,2.18014939625705,2.18002946310365,2.14244830976152,2.8784,10.1689898634202,6.57576246360858,3.90064687036994,0.837876392362846,1.44986120065833
mp-8861,Rb2MgF4,1.45235517694536,1.45228957856207,1.44797767938598,6.3742,13.5564535654493,13.1125546167516,17.9978061895342,0.507907839288467,2.02442345268081
mp-600003,SiO2,1.39054184403059,1.39054184403059,1.40779034660705,5.4596,12.5811907308667,12.799814551837,186.589820271883,0.622976121625876,1.61055730988072
mp-20652,PbF3,1.89039469688211,1.89039469688211,1.79541632219382,1.9099,13.7143001352656,10.16629192736,1.01849180750168,0.814129626514443,2.21014955636622
mp-865716,YbCl2,1.65969418267342,1.65969418267342,1.69075628048516,5.3972,12.7254756104129,10.4825184803077,2.38629304931111,0.410087487734368,2.85756406530948
mp-707176,NaCa2Al2P2H5O11F4,1.59923303492643,1.60484636647874,1.59165680345984,5.4846,14.8197215491719,12.7905039333757,142.83273072244,0.5111072448785,1.96353773549217
mp-8289,SnF3,1.61184682274712,1.61184670797195,1.61184683825728,3.2702,13.7366677949296,11.7494607376161,1.23979335524445,0.512022392605213,2.75962561238148
mp-685014,In2Br3,2.09585160257114,2.10058319283003,2.16832172428355,2.1418,12.5466425123732,8.26275703415258,8.90883442481735,1.24255707298338,0.917040136010875
mp-504910,Sr(BrO3)2,1.74023763032524,1.7097757835459,1.70826079976097,4.2651,11.4514235223964,9.15599063899443,15.7064173816176,3.2256588218672,0.373682430962595
mp-771443,Tb2WO6,2.14668760419396,2.11118608843465,2.11490694594349,3.7798,13.9837184353322,9.19922675897462,15.8717061595521,20.6364506548278,0.111463144126202
mp-555096,PrS2,2.98017714574151,3.20759432597079,2.82038141924102,0.8834,12.360494792472,6.17605228913228,2.62961430753142,0.422129126860444,2.74922728456928
mp-2955,NaMgF3,1.39548838404338,1.39502469512192,1.39579764650898,6.7529,14.0257898739516,14.2814843591896,12.2155470759597,0.547020067894845,1.90994938863587
mp-772820,SrLu2O4,1.98096583261802,2.00746890885015,2.05292597284948,3.8741,14.0939202525202,9.71282141431244,2.83695080186497,0.878016915860695,1.49142135312271
mp-909,As2Se3,2.91373113550307,2.29907351774579,3.23345826631488,1.6374,9.40173203057812,4.93213094511766,2.82697513224275,1.63589232648325,0.965022158574643
mp-753594,BiOF,2.26362665428732,2.26329355144223,2.10931174082922,3.037,14.0315104973054,8.91933181932049,3.2131455709812,0.715427453803252,1.70898726671106
mp-696656,BH4O2F3,1.39553685727035,1.37542427999509,1.41016184177562,7.1784,15.0472482412337,15.3476573474584,36.2052897052068,0.602432038450644,1.68755855053541
mp-8140,AsPO4,1.8803188027566,1.74617650883294,1.74558356717746,4.6416,13.3930276785144,10.2873959784064,4.02482705726038,2.48373009411365,0.651078117841384
mp-766947,Sn(PO3)2,1.76609064886262,1.74095495346663,1.78099391632874,3.8201,14.8280165939972,11.5662379231457,6.73447080960837,1.20852221662274,0.975946627946775
mp-780409,La4Al2O9,1.96297013222311,1.95427273685123,1.93084594672905,4.4019,10.3357925606545,7.33314524533748,10.5403172663575,0.613603840516537,1.72458981014929
mp-7449,Cs2Se3,2.11585513918132,2.29050350796501,2.15849855918414,0.8303,8.12204667048653,5.2100206031188,7.02876189497531,1.33139686348984,0.893363415920702
mp-27219,Mg(SbO2)2,2.09602709429053,2.09602709429053,2.16810168580719,2.5542,12.4793567599908,8.22354112278864,2.32042341853447,2.94597000243301,0.770402599251239
mp-2589,MgO2,1.73440253113284,1.73440253113284,1.73440253113284,3.8431,12.3311817743434,9.77400362176041,4.0089797454031,3.16621661933087,0.565274383155183
mp-722246,SiH10(O2F3)2,1.40782395561377,1.38151267095166,1.38939687994468,6.607,14.7549340366326,15.0613403267612,47.5322421983789,0.57259572079197,1.76747124203674
mp-28587,BaH8O5,1.61404540208756,1.58995747427408,1.61099732153719,4.8099,14.361657166891,12.3409947741736,13.6797611201235,0.474953642519314,2.17856933215446
mp-23291,PbCl2,2.22182905733092,2.17867339452246,2.11071851273447,3.9313,14.8746786366453,9.60794003957684,5.42304944213956,1.33069497324816,0.935885117559366
mp-757850,K4Sb2O5,1.9212578587998,1.73690460302228,1.77031558768486,2.4079,11.8182414695189,8.98681734565794,44.2285517210641,53.4410929461555,0.041322021347607
mp-707981,Y4H9NO13,1.74656727039069,1.7544974437143,1.73453735618464,3.3887,13.47494465043,10.6147851295739,41.1183477717346,275.610857644147,0.027948347425576
mp-772282,Sb4I2O5,2.51998274994096,2.54312924366812,2.44628926130987,2.2686,11.8692391173236,6.82241443008781,0.886994573001522,1.4440095844079,1.81991879288334
mp-557865,NO2,1.39973731106947,1.39973756826057,1.39973726820429,2.7841,8.39237634575002,8.50952771842658,4.40477446834869,64.9255213113673,0.242428643184139
mp-645299,Cs2Mo2O11,1.7392012218257,1.75638168403112,1.73680508117635,2.2645,9.92766466994915,7.82521178325354,93.6005793662466,186.548093620963,0.016044242499235
mp-755376,Er2TeO6,1.98470664582955,1.98474367110718,1.92816427464052,3.1514,13.6372909984021,9.60220280387042,10.8133122757166,0.664407920246561,1.59757805880779
mp-7791,Li2GeF6,1.44509290704785,1.44509290704785,1.45870211489529,5.7409,14.9532144427487,14.4793667022987,4.72222337507082,0.907646012871567,1.31351576179473
mp-22216,In2S3,2.65241709012742,2.65251164370677,2.66770903210976,0.9128,14.7691932170048,8.0997507214637,79.9423149598355,0.177132852653723,5.65798914964001
mp-850292,Dy2H16S3O20,1.57093766903719,1.58286128893217,1.58790277725055,5.2738,14.3894185695234,12.5753672129643,59.4781896008874,0.549017013244237,1.83825006495865
mp-759924,Bi14SO24,2.34327671861434,2.34066097288779,2.38792574842686,2.6898,12.5169480374041,7.54996505338,11.6024865016385,0.843213309921438,1.27212795595477
mp-29555,MoBr2,2.07059199988795,2.09201806158551,2.13027376174988,2.122,8.80763067383036,5.85730213046264,10.8777084575192,16.1640084286053,0.153796969737497
mp-6204,Cs2NaScF6,1.51999174668812,1.51999156576607,1.51999178287253,6.7991,12.2465777189359,11.1913609437062,12.2226820602276,25.3205441821855,0.121308725649341
mp-757924,SbH5(Cl3O)2,1.71187366940438,1.66741195269795,1.69978519819417,1.6463,9.47667501424604,7.69709047082987,103.041759896233,1.10403288449514,0.915474924752764
mp-30092,TiCl4,1.50116555715884,1.51516549921122,1.50692390650623,3.4606,6.37660182729573,5.88316020778245,55.2140365703213,90.7307753239465,0.029132955165241
mp-774810,RbPHO3F,1.44775698582324,1.46592263438423,1.45937299207571,5.189,13.466991001065,12.9491094745981,30.2718605090969,0.521693893434776,1.94986684307891
mp-504751,AsHPbO4,1.95551953199143,2.00540892837346,1.95018865497674,3.0145,14.928824123249,10.4900082178726,1.36557553922297,0.574736712134831,2.47221910207302
mp-17434,K2SmF5,1.45895190804906,1.47716442551261,1.46186631399728,6.7047,13.2698315266199,12.6689673207375,70.7441958544491,0.553023469144033,1.82237695807226
mp-754599,BaTm2O4,2.06123348507635,2.0862671688928,2.05963990542036,3.2297,13.6893922426329,9.21263959350752,3.18048268718871,0.805783672521103,1.55544556030648
mp-722684,KAlP4(H2O7)2,1.55838050873335,1.56367451216677,1.56156045992462,5.7203,15.051324421866,13.3368328692391,15.1961280422508,0.534005620166704,1.93844570391659
mp-684679,Sb6O13,2.09517054198459,2.19964756949835,2.16477103639161,1.4302,12.4630277514871,8.10473460918655,94.0717532224626,0.624763480524441,1.61123590259187
mp-707105,Li3B5(HO5)2,1.58932684807122,1.58932684807122,1.60660716729386,5.9382,15.9723534514786,13.8184117945453,29.047712478627,0.634940343898184,1.60937722971253
mp-769222,Dy2Pb2O7,2.41191257718848,2.41191257718848,2.41191257718848,0.9585,14.9711981687031,8.86450845219581,2.21602530600358,0.292154827422161,3.87410102200319
mp-755428,Rb3ClO,1.73204081649365,1.7306179069916,1.75162988385104,1.3329,9.07318199558113,7.17638502129749,79.722183808175,0.395831955715406,2.53886814188695
mp-531132,Ca3(PO4)2,1.69029621368564,1.69037811154783,1.68959187675604,4.9822,14.1867375243624,11.5431769368617,589.876983419068,0.587288885646701,1.70443479681475
mp-5078,SrZnF4,1.50883317500644,1.50845464631854,1.50485500630459,5.0649,13.9076506081314,12.8351893859121,7.98711093756764,0.579443806854675,1.85099460309915
mp-543042,ScP(H2O3)2,1.68487283199653,1.6391875518073,1.66803877353016,4.8638,12.6313438493876,10.4441505235547,12.768813183517,11.8462099516927,0.162730998744539
mp-2160,Sb2Se3,4.30359310460457,4.27964500981098,3.10315021389555,0.801200000000001,10.7634257196891,4.44747250402395,1.28892164063024,0.741325690804895,2.12477712386629
mp-756347,Y2Pt2O7,2.69069305198493,2.69069305198493,2.69069305198493,1.8571,12.8508553683772,6.98030614897002,1.82466308210124,1.20156333044422,1.38029548142239
mp-28112,In5Cl9,1.96043498489493,1.96332964883638,1.95640064659568,3,13.375683475029,9.44315966595192,4.64232699499763,0.654756557390373,1.74269441248487
mp-759356,AlH3NCl3,1.53313698018148,1.53363792663066,1.53083018326658,5.1434,12.0284485532724,10.8870044640525,13.3080074063002,0.466905120932495,2.21690548844706
mp-643384,BaHIO,1.88630802362711,1.91206172756007,1.84533247410866,3.9362,11.7100876710881,8.58361450834352,2.22194608961603,0.351005604877659,3.29901327976355
mp-703476,P2H16N4O7,1.53022601598587,1.53918525525682,1.53492785172463,4.8016,14.943106224161,13.502136782945,109.54297451122,0.549562886077799,1.828756809594
mp-24171,SrPH3O4,1.59325078691335,1.59473443557227,1.61646647660878,5.8027,14.389605254661,12.3946375230879,14.013491262318,1.66737098333302,0.671106357829629
mp-27780,TcCl4,2.05758435307037,1.70575987759122,1.82593377755054,1.72,14.5459827589563,5.19483053259595,22.9465893743908,18.7997686916626,0.096771604961177
mp-1666,Th2S5,3.71395309474958,3.71695843264355,2.98095591379678,1.7534,10.6887957679026,4.79958827332272,1.70045020177922,2.61723568267326,0.970162074261466
mp-570884,TeI4,2.21682738389799,2.48277698555468,2.42046050370585,1.7639,7.06874073515963,4.24027255149558,7.40649166896201,6.83686976974851,0.281282458286735
mp-32755,La2Te3,3.46544039192712,3.46386646393882,3.46701402506537,1.0864,7.26790156892958,3.26705248491106,0.89499767744677,0.713935737629427,2.51800762574454
mp-23748,MgBHO3,1.60583017782081,1.68755124070352,1.69253411782451,5.4453,16.2478562996604,13.4518415747286,41.9306143883094,0.490500443860482,2.06258306195609
mp-695843,SbH7(Br2O)3,2.03634998219854,2.01388941106507,1.97368251499576,0.8734,8.129540215831,5.61683311313598,5.10856573923758,1.29070376167582,0.970520779477023
mp-15141,NaZr2ZnF11,1.50787474944042,1.50930249784462,1.52828044546804,5.7476,12.1151993755228,11.1129791372745,805.428236756203,247.566184549715,0.005280899417933
mp-583714,Pr5O9,2.07257171407891,2.09545621285676,2.06627624726221,2.8322,12.9322710687206,8.67016354978136,266.417132202471,255.016064984523,0.007674833949542
mp-32581,Pr2Te3,3.65271413061575,3.65000540821517,3.65541477810658,0.9424,9.64600062942639,4.17396282164447,1.00602543440912,0.481709007438275,3.06995273637691
mp-720391,BH4NF4,1.37833708866881,1.36356030303027,1.3563473227754,7.4934,14.6333542214697,15.351165674276,71.3041989769075,0.621661697861931,1.6226163650096
mp-769393,DySeO3,2.0742729690183,2.01054495100209,2.07411770157819,1.9188,11.6084090907931,7.86547485963589,20.9648456629591,45.0996620432114,0.069872011493488
mp-7368,Dy2Se3,3.07480057564714,3.20520240546521,3.13370399687016,0.3633,2.32518771589898,1.12426490754385,0.975609725855425,0.423872079694282,3.38420236640498
mp-12180,NaS2,2.14361653053899,2.09507045943567,2.08825520710473,2.0683,9.65286868862818,6.38963015886556,15.7278337152387,2.78906593448434,0.422124522943603
mp-27678,Y2Cl3,2.94153653215458,2.15134018230497,2.53913042792213,0.8149,7.10859459688896,4.03400492020594,23.4573468378716,18.2203729727828,0.097514185715698
mp-34857,KNO2,1.42419560454314,1.36230417308324,1.49223570189163,2.4944,8.94835082197222,8.84867589373939,13.4026213926517,8.03960734604937,0.198996453620423
mp-27456,BaBr2,1.8869681475849,1.88536095483067,1.89133552285151,4.3731,11.5932251875256,8.47015549332001,2.65033768446437,0.815575251182953,1.60343883782205
mp-32715,B36O5,2.52290343255544,2.50194625441875,2.49442928542783,2.5783,18.3623763653485,10.5436588773933,0.662594636205002,1.1675796269203,2.36569101010088
mp-696815,AlH4NF4,1.45038195658937,1.45038195658937,1.43576350420256,6.8114,15.6971264673121,15.254975741924,7.44690461437636,0.550171317065373,1.95189963842934
mp-32688,Nd2Se3,3.14351893902359,3.14141643371267,3.14591532467103,1.5191,11.0199923640949,5.32115248411133,0.982147374515308,0.591091044068207,2.70996389116285
mp-684911,Sm2Te3,3.68345255840224,3.68379842010933,3.67227054558893,0.9903,9.83773211965039,4.23430033918839,0.96146169240364,0.490056912717556,3.08066235662758
mp-15514,NaSe2,2.68181437090638,2.59202250376034,2.58907437513873,1.2207,8.64749897949313,4.79391685697667,7.37617867490638,2.04601104903872,0.624327467089274
mp-757727,BaB2H2O5,1.71768255216149,1.70539278466868,1.73314944825886,4.7844,15.4064027404238,12.3231294238688,32.9889200529482,0.563606527389345,1.80460067892946
mp-733581,PrH(SeO3)2,1.87543284337243,1.89995007039659,1.80977755815459,3.5309,12.568621409711,9.30300325954624,68.0130635159423,3.14510780786489,0.332657182397245
mp-540668,BS2,1.54773207306691,1.91877937501944,1.8696978392243,2.5605,9.41944402589028,7.28248034271505,384.997940558026,79.0228473637802,0.015251984548213
mp-27127,Te4O9,2.24485114651284,2.28184448856621,2.18395464925442,2.3829,12.7641734768786,8.03848282192072,3.24419357864152,1.66260907668822,0.909707309244043
mp-570232,TbCl3,1.72805128974808,1.72805128974808,1.75119197120133,4.5211,10.4376112977809,8.26663036337384,2.86587128252564,3.57209491326358,0.62888179293686
mp-27436,PaCl5,1.65436534054604,1.65107707270133,1.89742166636728,2.4199,5.68226112849513,4.50419950765731,35.8886609200986,1578.93974895004,0.028497290473216
mp-757145,SmH2ClO2,1.86530222216133,1.89817738633669,1.84817254335195,4.7224,14.1504371141514,10.4275773871316,2.53724194092763,1.208560097229,1.22155967780648
mp-9481,TcS2,3.77249097281889,3.58229572341536,2.46056502860623,1.2258,10.0633986041007,4.71794177626738,3.04868129274211,8.8434648289126,0.441088523347028
mp-1522,FeS2,4.41081021355488,4.77139080667262,4.59575394467545,1.1734,11.8825277018465,4.37083631032012,1.87745893031248,1.89225900748265,1.06110370118697
mp-24348,BiP4HO12,1.69815622072882,1.70310253654911,1.72332105250299,4.9638,14.4302580428774,11.614404499911,31.9720751818243,3.33356898529729,0.331256086971002
mp-23220,YbCl2,1.76344509412683,1.76814461795409,1.76478523905885,5.554,13.4972970916911,10.5119653248972,9.80629379005758,0.376188944794421,2.76021399463696
mp-571035,OsCl4,2.37026212474486,1.87529486214835,1.86161821811025,0.6741,11.6746043257303,3.77829209390424,2.69033417103779,14.6115376327212,0.440140103328291
mp-634431,KHCO3,1.53432363600383,1.49504947409776,1.41484532723545,4.9714,13.1634632605366,12.4060541098683,16.4332289521618,0.818395708589448,1.28275510392744
mp-7447,Rb2Se3,2.2169839602487,2.47104348606009,2.34181894048195,0.8282,8.69968125689422,5.27298561343248,6.07592597094239,1.72537100365988,0.744169457901319
mp-28478,NaTe3,5.66257206223462,5.66257201013815,6.17984406437573,0.6028,9.49518822469772,2.95886702550264,0.995339109305031,0.259928938767706,4.85188805152394
mp-568584,N2,1.29292015994801,1.29098745539994,1.29538552562548,6.9711,9.07124544566418,10.355917628573,12.7526778288618,10.5274107763934,0.173405022167676
mp-16911,Rb2S5,1.97478467686986,1.87942244053858,1.82211569336308,1.9823,9.35039437511561,6.81740925606266,21.0013724857066,4.63830130180763,0.263212106477566
mp-28294,Sb11F43,1.53677708858507,1.6088125248145,1.60823644405914,3.5687,12.5402641939486,10.9283181979417,5.90317264291007,2.31353318565063,0.601639747959341
mp-602,Te2Mo,4.28141569927518,4.28141551709245,2.52619388606655,1.0675,10.0912475522082,4.32945591006513,1.7105522798482,0.673222704233985,2.06999907668462
mp-505464,Cs2Te13,5.58558909337234,3.64422865638258,4.00790664187678,0.4848,5.37200369984049,2.03223662091756,0.795173470683836,1.08405641105569,2.18004844749288
mp-18609,K2Se5,2.80454820425679,2.47750225226941,2.40696734502153,1.0194,8.48057973316772,4.78446245467569,2.82835579072864,1.39224155099552,1.07182847286685
mp-27655,Te2I,4.40234921150061,3.24267083898443,2.52086953847279,0.6558,7.89885346941605,3.60914879219898,0.958194738681448,0.641885471196872,2.60153951130759
mp-27398,TlBr2,2.07428994839198,2.00139851853648,1.97228860717695,1.8442,10.6085176605708,7.30378214990194,8.18659030934873,1.09201295818741,1.03789102558713
mp-27342,Ge5F12,1.617659275002,1.63287338762073,1.64934505789419,4.416,14.1455025444663,11.9284462510976,15.689194023646,3.51605504341869,0.348147791592261
mp-23238,Ta3I7,2.36285744385902,2.34874105000956,2.36123842929934,0.9535,7.33039843977052,4.42105050518869,5.56345363307227,4.95579405029309,0.38152847633631
mp-530033,B8O,2.54755999733078,2.5681184357424,2.56366395418744,2.4625,18.2981653348155,10.3334483358507,1.18789065668631,17.7452691820991,0.89818137114589
mp-561153,XeF3,1.588830827999,1.60008891940417,1.55304840877546,2.5172,8.44747548997271,7.38205448110809,76.5861349718849,17.6527285109165,0.069705660230131
mp-2095,Rb2Te3,3.08314722645546,1.9397214439192,3.46046314530295,0.8223,8.30526119279566,4.34240158479271,3.59985874213988,3.88993223252237,0.534862564942232
mp-23165,PtBr3,2.76628136493741,2.91615889656239,2.74941769471283,0.9419,7.7483729759712,4.07008000515513,22.3307450951269,3.43860327613642,0.335597061869447
mp-24239,K(BH)6,1.58299596335556,1.58299613707678,1.5829959791484,5.691,13.0338684173019,11.3713027229573,16.2067580207324,0.592817651024973,1.74856200932947
mp-1115,PtSe2,4.35456534799973,4.35456508850195,2.77844631943826,0.8732,12.2076254738551,5.10644758411536,0.941169852480924,0.315119694738122,4.23590480790012