MP_id,Formula,Ref_index (1),Ref_index (2),Ref_index (3),GGA direct band gap (eV),Effective_frequency (eV),Average_optical_gap (eV),effective_mass_valence,effective_mass_conduction,effective_mass_transition
mp-755613,LiTiO4F3,1.56178137394451,1.48544228767058,1.44946875785579,1.4049,9.1782294749726,8.52783910080286,334.110889944993,30.2358048288231,0.036066389587862
mp-12010,BaSeO4,1.73311719742203,1.74078501544562,1.75689644828601,3.7461,13.1116354038801,10.338009246594,10.6601683090442,0.606948672972984,1.74139292470729
mp-22467,Sn(PbO2)2,2.28527133181161,2.28213430367277,2.2829672051959,2.1402,16.9746542132165,10.5090458742393,2.0279711603571,0.344382779562295,3.39684931478668
mp-566640,CaV2(PO5)2,2.17229515950296,2.09980135250933,1.97609262181711,0.5153,1.56297036739862,3.24902899082611,15.1730700308765,46.7109813006849,0.087314482506853
mp-2895,Mg2SiO4,1.70796971284622,1.68906020615015,1.67218498079608,4.6395,16.2714750447613,13.2422607342495,3.40839505117504,0.403202565346134,2.77353617059964
mp-12647,TbNbO4,2.26906548385012,2.17934052410356,2.18098028418416,3.6049,13.3351364266166,8.48400726411688,4.96148082685257,3.01230599510082,0.533524315320445
mp-3051,Mg2GeO4,1.82989444504321,1.76931157798733,1.74797715660131,3.4021,15.9552988114708,12.3109094149443,3.26716439790151,0.37127121743296,2.99952457262808
mp-557022,Sb8Cl2O11,2.1131612456223,2.23366585683714,2.24015574012166,2.9112,12.0806779271127,7.72742964062725,34.9135407715245,1.48604346260339,0.701570010580801
mp-15382,TmP5O14,1.63297629805212,1.63301577763352,1.63044061836057,5.2943,14.6712175811652,12.3810517012092,10.4810156978632,0.601940660390782,1.75670392343299
mp-25180,Nd2WO6,2.14931904797775,2.11360949562591,2.12127497746049,3.7353,13.7116923831024,9.00645605375151,16.64708307329,17.1794299412539,0.118279733037137
mp-561491,KNaMg2Si4(O5F)2,1.57334133931579,1.57520586273668,1.54575864869002,5.2115,14.8768100522676,13.1483191050264,53.2020559618475,0.500627641546135,2.01628884741831
mp-19893,PbCO3,2.09312687861964,1.80330727830839,2.10060423688043,3.3293,16.0046835144814,11.1018997230751,25.6780780091618,0.751937534553085,1.36884142766613
mp-5175,NaInO2,2.0652320063373,2.07709119684235,1.85181112157801,1.982,17.622252562464,12.2292185937304,6.06521823842254,0.282450066219625,3.70532333599903
mp-25085,ZnMoO4,1.93592377174309,1.92528290388711,1.90088320261925,3.6143,12.7893636212558,9.19703702786436,16.6083051577508,8.34299320332393,0.180071898658031
mp-29265,Nd2(SO4)3,1.69461235685333,1.66582430045909,1.71742746571726,5.4572,14.25841128185,11.5837029349712,19.5722670310052,5.06989064788039,0.24833561465257
mp-27657,Ca2B6O11,1.65344288380337,1.69155072049289,1.71615816287427,5.6692,15.3026906189761,12.4742069532266,20.0426908262186,0.688490262377451,1.50234686764477
mp-7572,MgSO4,1.60177293958913,1.6087441033303,1.59449200060709,5.5055,15.6203696725872,13.4530641547764,4.04174015472074,0.519042686698723,2.17404199440076
mp-30119,Cs3AsO4,1.68652308018598,1.68662228729494,1.69109941753878,3.3566,11.4526662691348,9.3299462689969,15.7331618038848,0.431479034240711,2.38116972633352
mp-15437,MgP4O11,1.52590611441202,1.56180950823076,1.56642308461028,5.1143,14.2517822607814,12.7192234645725,75.8668306435567,0.575802110877688,1.7498887609408
mp-27739,As2S2O9,1.70524120874438,1.76178054535745,1.64094868292704,4.111,12.6361177069699,10.2039645648879,27.6667385106016,3.99294602312857,0.286586136860315
mp-565651,Pr2Mo4O15,1.9966634443491,1.97111232049318,1.94060703131778,3.217,11.9324886117341,8.38806368623428,29.952778730495,85.8159118687621,0.04503873472646
mp-12533,La2Hf2O7,2.14401230640125,2.14401229707294,2.14401232972201,4.2716,11.2173603213917,7.32125766522562,1.65899673127159,4.58216632663123,0.821011328024541
mp-18993,LuVO4,2.03860855487266,2.1219773420091,2.06562627791186,2.9443,11.5773159482371,7.77051734304708,4.49385166658921,1.30764704708541,0.987258609573939
mp-4886,NdCuO2,2.23675034816137,2.24291016092932,2.14784176325911,2.5336,11.6428157195774,7.40909367547376,3.1319822304513,0.688967399037088,1.77073410059295
mp-30957,Pr(PO3)3,1.67917677449398,1.68303985098393,1.62657168301923,5.4775,14.6751238023673,12.1424442949062,129.024926688176,0.594277122908259,1.69046707449472
mp-4657,Li5GaO4,1.74916863395157,1.7363439405832,1.73341617334096,3.763,15.13049508626,11.956785857797,4.81986537980582,0.541014328736598,2.05585455427959
mp-28102,Ba3Te4O11,2.02905831360264,1.92174769155579,1.89492520960591,3.2631,12.1605218792917,8.63092172151398,17.6444669348612,4.95052690564935,0.258673690882003
mp-542291,Sm2Mo4O15,1.96811848728678,1.98621567560021,2.02740431340174,2.5508,11.905895015379,8.27750719365237,42.1011590469402,37.6303474184485,0.050326611443093
mp-5141,Na2SeO4,1.58713932595724,1.57468888038241,1.5671151776433,3.3561,12.0546287245758,10.5665783107449,9.4069401006964,0.568678235318466,1.86476813378925
mp-9126,Sr(SbO3)2,1.91844475813092,1.91844470600536,1.72642584549699,3.1144,13.7117714203633,10.1865333726066,7.27585656547235,0.439417061445419,2.41318317574293
mp-4753,Al2SiO5,1.66415471035598,1.68107439454654,1.67294626034431,4.8355,16.1759698716137,13.3026964793347,6.88477082873351,0.449670210242605,2.36910012519861
mp-566891,Lu2WO6,2.07754351819643,1.95546651211418,2.02336945217625,3.6726,13.1795319955717,9.06275409102071,5.6800131761125,6.67763359963096,0.325809578889621
mp-573109,Sm2Se5O13,1.76706073183691,1.8830713608358,1.92801873694215,3.6066,12.1169287151319,8.97923606933411,11.2144063435354,7.63197296243897,0.220198733187192
mp-542290,Nd2Mo4O15,1.95456118860475,1.97717418049094,2.0133976904725,2.5801,11.8820366356448,8.30630387119345,53.8361025672389,41.8607273447634,0.042463635125779
mp-20088,Na4PbO4,1.86867622663746,1.86388896665011,1.9106689090473,1.2998,11.0046136985913,8.06711664736594,43.8823841908423,0.422653772242118,2.38879096728321
mp-28299,USe2O7,1.94205495545311,1.90322064406626,1.69225775223516,2.1409,7.89517452559435,5.89107448313693,4.06308343219856,502.427005342102,0.248108838945816
mp-4805,Gd2SO2,2.35498622713595,2.35498633117052,2.35681978521906,2.4024,19.5564051379666,7.19511085230782,1.9198310553904,3.51860546243546,0.805082670064952
mp-20727,Sb2PbO6,2.12409906077847,2.12409895955909,2.07402767821454,2.3373,15.1464187411116,10.0324702410637,0.829297793127302,0.440044049775305,3.47833922200224
mp-19323,SmVO4,2.00968792104645,2.10131526668418,2.0375096294251,3.0059,11.9449226929264,8.10548222412443,4.80273401,1.22492748443066,1.02458959430652
mp-561725,CsBO2,1.6004799186494,1.5546632111168,1.61176846041856,3.8568,12.2860556141619,10.674288083848,14.955288851399,0.531913472518919,1.94687099971808
mp-27980,U(OF)2,1.64086309910364,1.64466374678838,1.60517787176375,2.0548,6.50065435398489,5.49276996628126,4.46985896470553,59368.892871488,0.223737549098517
mp-14708,Tm2Ge2O7,1.93121686767696,1.93121686767696,1.92206063640042,3.7188,15.3674197528081,11.0118618088249,22.3440338324155,0.428519693916892,2.37836971002813
mp-23562,KIO4,1.62868287889325,1.63040002453386,1.64981509873076,2.4114,10.177586321658,8.56563172795786,19.642297245717,0.813336053411037,1.28041462687547
mp-12183,KB5O8,1.43123391519346,1.43263531647101,1.50925275881809,5.3412,13.2774725405764,12.7666239984142,8.18976289837778,0.606050622602072,1.77213083743132
mp-23384,LiIO3,1.81643880986947,1.78908388288532,1.78908388288532,3.7651,11.2469394708056,8.60406511328173,9.51226648848637,3.28526429416029,0.409516929829023
mp-541285,Th(TeO3)2,2.12106547282256,2.04497621746562,2.10804338902215,3.6292,11.7232478708792,7.8164299225782,8.80273178202028,3.38730995638171,0.408820612741462
mp-20205,Yb2Cu2O5,2.14000900932683,3.17513707105693,2.54902815402263,0.9319,8.83692013321419,4.89831245699729,22.2459087412,14.8635195041565,0.112230902285361
mp-28950,P4N6O,1.8660555806299,1.97218961816556,1.83505688740159,4.6404,15.4502259274132,11.2703698343602,8.93066784451491,0.883006632312058,1.24446803369671
mp-31067,Nd(ClO4)3,1.60422966871954,1.60422969677038,1.65757618829422,4.9286,12.9515687455525,11.0030040249266,31.7851120762042,2.03460982395357,0.522955997231926
mp-5800,Sm3Ga5O12,2.0527270568685,2.05272713481359,2.05272712019888,3.1576,18.0787886424589,12.2509019802667,6.59177103772727,0.3144169970421,3.33219393281579
mp-559304,Er2Te5O13,2.13764119767561,2.10422778947527,2.13136526667768,3.0257,12.9321117775237,8.50690589625055,3.95073562245911,3.44839578267129,0.543107333038834
mp-654139,Nd2Ti4O11,2.35665277883697,2.25634701010283,2.32898865175423,3.1567,11.4271268011937,6.99769510919619,7.16523615254496,12.6144016038383,0.218837211248423
mp-28599,Na4Br2O,1.73275989969759,1.73273675727157,1.73138927454227,1.9824,10.8961895879525,8.64709083681373,42.8195957586772,0.331151430107241,3.04312030847042
mp-4350,La2(SeO3)3,1.95774113457321,1.9770260822761,1.9204899296794,3.5808,10.0008270178282,7.08763401607869,6.10614872649168,11.0435495673089,0.254319945127347
mp-30989,Sn(NO3)4,1.51442418760399,1.50177229965132,1.49332572133477,3.6378,10.2380492796881,9.48012610750741,199.430641815739,8.87069115686406,0.117745062115895
mp-11691,Nd2HgO4,2.11606137198334,2.25570877996252,2.14888079008585,2.2487,13.7356470974243,8.86135407661773,7.08876209974547,1.51791440450575,0.799867029835338
mp-5156,ThP2O7,1.61392514696314,1.61392514696314,1.61392514696314,5.4026,11.0821739681594,9.4657589378176,15.1869627285289,237.118231084101,0.070063256174129
mp-559613,K6Se2O9,1.61475386359655,1.61475386359655,1.6412937366602,1.6318,11.397320732422,9.67241050735858,62.0628954089356,0.633838018360676,1.59380283961069
mp-23357,Sr2Bi2O5,2.08936216822264,2.1704480505186,2.00922473606115,2.2761,11.6979442779863,7.80499010271742,10.3361488546916,3.15984110252618,0.413219442349247
mp-30301,LiClO4,1.5267036483876,1.52056324103932,1.52541960784566,5.7654,12.9384299558111,11.7850574394457,14.8193709578107,0.978921332531612,1.08901179227611
mp-4867,CaAl4O7,1.69712325421579,1.66978460886427,1.66724057352261,3.9982,14.3034884490382,11.724166440281,26.7427857858103,0.433608671687722,2.34362020202109
mp-5152,La2SiO5,1.98443836387024,1.95142818725158,1.9509897360058,4.4685,10.5195788847411,7.41916023164154,4.05307466215988,186.97219335245,0.252074660503019
mp-29215,Te4P2O13,2.082195730473,2.08665294670676,2.07619478854948,3.0667,13.5720980517314,9.08555230922756,3.56779114798999,8.54609451532992,0.397297978255166
mp-5836,ThSiO4,1.92321912428095,1.94819349655007,1.93094148280055,4.9303,12.659552227311,9.0460412873597,2.19583008503338,3.83044353610266,0.716475016077808
mp-559213,CsIn3O5,2.13949279503344,2.00896717992107,2.09532358837484,1.5643,16.4211383974634,10.9947042627574,11.1050207389829,0.273385272239718,3.74789087996597
mp-10251,LiDyO2,1.9157557438254,1.92552107493011,1.9439386024255,3.9643,13.3303935322079,9.551100281613,7.33726628284721,0.46652526816489,2.27979716068699
mp-5598,Sm2SO2,2.28829995629944,2.28829979679237,2.28147484754928,3.4187,14.7666107110788,9.1335740718389,1.86204476703134,0.693164116641966,1.97970380769797
mp-17922,Ca2P2O7,1.63808943589781,1.64861308074393,1.64677144740853,5.5335,14.1783264539799,11.8696678205884,17.7586392061606,0.530678863181389,1.94068942205278
mp-557738,Li3BiO4,2.38299394040354,2.22746429601015,2.22746429601015,1.2786,11.1560501602134,6.91711124808381,4.79487575213555,0.54058375506606,2.05840808771868
mp-505799,P2Pb3O8,1.98766383475677,1.99452892934648,1.99952519363973,3.4156,16.3549575115193,11.3707278537781,3.4385142977573,0.814861907304993,1.51802507887962
mp-684018,SrB8O13,1.61120919498369,1.59631051803839,1.61983914324849,5.5774,15.0431036058014,12.8905640348302,323.208729143806,0.593096254646704,1.68916093742798
mp-7404,Na3SbO4,1.87765669918652,1.73710102469603,1.8007534756318,2.1241,13.4234822798875,10.230955077145,50.2662812143456,0.398637086581266,2.52844138380577
mp-21497,Pb2SO5,1.97959665588725,2.00612605536143,1.96854726892701,3.2275,16.168336404752,11.2871956000007,2.92233608144808,0.739175483426692,1.69505071250086
mp-565616,La2CrO6,2.23014326669835,2.19777512498436,2.21111314274055,2.1854,9.57210066016553,6.08249396612633,6.9195485509715,18.4137189594684,0.198825433410985
mp-3536,MgAl2O4,1.75513805155036,1.75513797178455,1.75513802306257,5.1221,16.9962306898854,13.313616798845,3.65910667290541,0.379001302457894,2.91180410811527
mp-7258,K4SnO4,1.68359114098406,1.67979076673257,1.68451921627508,2.3968,11.8140756597899,9.65643256978704,17.4327209456781,0.470910819490915,2.18090772028638
mp-3070,Na2CO3,1.57437584140509,1.54961281615764,1.45481962799517,3.8761,12.9400501262614,11.7681091841562,21.2588241438197,0.628429095155619,1.63830870748442
mp-2980,Pr2Te4O11,2.10242408899822,2.25440653387981,2.03443860561089,3.4661,13.3115567662323,8.73536047916797,3.25766333109192,1.7553803821196,0.876645588818571
mp-21461,Rb2PbO3,2.09273220455939,1.87386455220221,1.80819241232785,1.236,11.0614074801214,7.93844915027567,29.2645908263661,0.520617431876762,1.95496721780772
mp-22939,BiClO,2.50708676754515,2.50708676754515,2.10043131523028,2.9598,13.4532885348703,8.07514398846561,2.40373907470456,0.612850269487399,2.04773846342504
mp-7560,LuBO3,1.84269264664512,1.85041644501988,1.78567626405236,5.6089,14.7123137404656,11.0893041001091,2.14604349448435,0.491130323967277,2.50209321997321
mp-557997,CaSeO3,1.78130913375528,1.92033835039558,1.87480565392789,4.3529,13.0838113322323,9.69851229271581,8.31713199873946,2.18317858872997,0.578281485160299
mp-22633,Pb3O4,2.40837154110407,2.38057953658348,2.38301124210525,1.1851,15.204690043397,9.06727319260131,2.640227814433,0.439203859663104,2.65560221690599
mp-29799,KBiO3,2.20082582454859,2.20082582454859,2.20082582454859,0.4914,4.32915161211334,2.76368648732492,4.31988577170734,0.416968084915444,2.62975268834565
mp-29871,Na4SeO5,1.72638206084285,1.70669251770786,1.69866607960482,1.3894,10.8337499037383,8.70737027425099,105.668054884364,0.565717485630134,1.77713036708407
mp-558751,Ca(BiO2)2,2.14981920635201,2.23179949368217,2.18862420483737,2.5543,11.6327249087198,7.456849637896,15.0965781456016,1.4467749420113,0.757432683969427
mp-27845,CaSe2O5,1.75198277674183,1.87190551043582,1.88270647207683,3.4822,12.2859025654479,9.21597481848203,8.66608337734285,1.95580480684653,0.626690848853376
mp-19683,Th(MoO4)2,1.9411241511042,1.96600174465843,1.88551521606165,3.721,11.1772111210761,7.99900802726538,15.7408424925622,19.5346147085383,0.114720182236119
mp-17464,SrGeO3,1.72182899847807,1.71681974883795,1.77661173304693,3.4356,14.3463230938073,11.3450408638052,5.12010475153332,0.464175940217066,2.34966402615765
mp-11183,Pr(BO2)3,1.84664006779881,1.84623240682207,1.75337018053804,5.4498,16.0674762753768,12.1798182435961,3.76414257383474,5.33069867087152,0.453257421735983
mp-8216,LaBO3,1.99064092191435,1.87926146131931,1.98532964769078,4.5018,10.5718160137226,7.49232570432022,14.7436609456363,34.217654462753,0.097050439342604
mp-559347,SiO2,1.531399758391,1.53088352920789,1.53088352920789,5.6873,14.4890412651493,13.1288218327321,9.40234956491365,0.513089248533859,2.05533506221108
mp-5401,Sr2B2O5,1.71947420742505,1.63790650832091,1.69221241869926,4.283,13.9505060614111,11.3987423228682,36.2049110497017,0.512328341362446,1.97949384208674
mp-20489,SrPbO3,2.5648582494945,2.6065947441058,2.59491920298109,0.8551,13.6277410576621,7.62814480605885,3.35874968495136,0.759824282811621,1.61382360167119
mp-16032,Pr2TeO2,2.67986624106503,2.6761649687566,2.48610311330805,2.1622,13.3460504004784,7.41395123242408,1.0582066142964,4.54290761812859,1.16511837868717
mp-559014,Nd4GeO8,2.09924140345983,2.02762632898668,2.04883965941701,3.53,14.6710730872827,9.91705462100607,318.205762687993,0.522862953341197,1.91568967262325
mp-556672,Sn(SeO3)2,1.86993692139601,1.86993692139601,1.86993692139601,2.6269,12.7231359198575,9.37866007031968,12.2818512096748,0.412420948740776,2.50612804424412
mp-504769,N2O5,1.75323849490022,1.75323805856478,1.72323849771295,0.7668,3.06133589471249,2.41423995035122,21.5408160558318,11.7175344820853,0.131765681939711
mp-13971,Nd2SeO2,2.37348399615418,2.37348455440519,2.38473686808419,2.684,13.9685696041609,8.36813744394283,1.45376412215304,0.657431048108812,2.20894156216761
mp-23207,ClO2,1.68721774232018,1.55488424649554,2.01148077047731,0.9701,6.80912794326755,5.34564757999527,4.91850010777191,14.2757956895992,0.273362648934903
mp-7405,SmAlO3,2.08889746995873,2.10830860407105,2.0667667454263,4.7758,16.3169347113478,10.8944374661885,2.5213032112623,1.06728171126003,1.33358003068132
mp-28380,Rb3TlO3,1.86879432255131,1.85517344202638,1.83825010811913,1.474,10.8532908522974,8.06445150150802,37.827370938795,0.48747255083137,2.07783344150615
mp-13514,NdBO3,1.89608189960244,1.87444388552979,1.91538777274995,5.1661,14.8122597411467,10.7828354405341,6.15731119923085,3.53109053722847,0.445607181914673
mp-680122,TlB5O8,1.61511436746752,1.71096822588849,1.67305531289315,5.2169,15.0785217384306,12.4492815858025,5.7000863915528,0.997542233356358,1.17789975965527
mp-3688,Er2Sn2O7,2.08840256655655,2.08840250670219,2.08840237741677,2.6793,16.2337808835653,10.8370698859069,1.83549615123872,0.333245549235835,3.5456020856715
mp-5899,NdAlO3,2.13394814135677,2.13746433654459,2.12002033244967,4.3719,16.7573322642374,10.9963197488538,1.90614818222448,1.0746279997652,1.45517275866439
mp-28853,LaAuO3,2.15721301451665,2.66851643052839,2.38240700343161,1.8035,10.6594025702281,6.33094111719677,6.36454963672171,12.3048127008413,0.238389322478578
mp-4531,NaNO3,1.52931700768676,1.54772426161768,1.38685864095805,3.23,10.5795028806975,9.91715346647476,171.063817365058,3.41307802821136,0.29883643622231
mp-558240,K3Al4P2O8F9,1.48206798764429,1.48745202275569,1.49397635858135,5.456,14.7174957129184,13.7975961576198,828.360301755902,0.537196382584509,1.8627238346098
mp-7027,InBO3,1.93988180825534,1.95207079021228,1.85443224195439,3.0417,17.9836458012015,12.9646834764227,2.45417244850725,0.474831211218571,2.51348084679907
mp-13975,Er2SeO2,2.35570602155702,2.35570560979083,2.34747250676126,2.2804,14.0267821385226,8.47331596670328,1.93350598170717,0.604617142447516,2.17113440508913
mp-680301,K3AsO4,1.59892876326621,1.59852491065982,1.59326912039366,3.4292,12.424635307318,10.7356690578901,27.361617100366,0.467464431100004,2.17574773784545
mp-5295,LaNbO4,2.1797908317084,2.17680526230529,2.14694108442686,4.0343,11.2627201807727,7.28215851038125,4.99607000401916,9.02499036674264,0.310960765866353
mp-4406,CaSO4,1.63575857020527,1.6429698414761,1.61665127965186,6.4095,14.2647549661219,12.0408017178975,8.63689921007604,0.536552993990709,1.97953109603228
mp-16280,Ca2Sb2O7,2.00847684079254,1.99237961995198,2.00222188830309,2.0585,14.0834143183827,9.76044371957309,4.98190823581384,0.333436685323147,3.19979641897834
mp-2345,Dy2O3,2.01195881916107,2.01195875454742,2.01195893596266,3.948,14.2043658081006,9.79680706218589,4.33103753276996,0.485201852601204,2.29188945861532
mp-18315,Cs6Si2O7,1.73953145128221,1.75770040109229,1.73839345086203,3.1656,11.5419009848779,9.09200464381569,6.78250182874151,0.41036222946432,2.58430966769737
mp-27484,Tl2O,3.56088672102891,3.5596865409752,3.65234303837961,0.5714,7.259281598442,3.18007854654611,2.11228641017867,0.185557238383603,5.86259332925561
mp-218,Sm2O3,2.04691413107634,2.04691417748766,2.04691422145629,3.8194,13.9089520272474,9.44866914084368,5.32328158885757,0.508997493721303,2.15250026493213
mp-561394,SrTeO3,1.88701575775085,1.82121755427516,1.85393702697799,3.4965,12.1097511528097,8.99812663619402,29.7579927042267,17.8575398327108,0.089603172249541
mp-19065,Ho6WO12,2.10911293201668,2.10202028772322,2.11340922445228,3.4706,12.7264379861561,8.42690112094636,4.46415632018564,8.30808446767562,0.344371181288905
mp-25146,V2PbO6,2.3246208637109,2.31438746107906,2.19796162159397,2.0598,11.3898190510681,7.06286784800948,75.9169151274153,25.9102369597468,0.05176707902398
mp-14387,Tb3Al5O12,1.91041112067534,1.91041123583379,1.91041122536484,4.473,15.5584760097514,11.2435401273483,3.50448812409786,1.07943447115594,1.21175940722549