MP_id,Formula,Ref_index (1),Ref_index (2),Ref_index (3),GGA direct band gap (eV),Effective_frequency (eV),Average_optical_gap (eV),effective_mass_valence,effective_mass_conduction,effective_mass_transition
mp-754158,KNdO2,1.99816289125787,1.99816372452309,1.78855424854825,3.7899,14.212679945508,10.1837871520401,4.24144381977929,0.742654191232424,1.58229049321128
mp-11327,Rb2Se,1.82400942980019,1.8240093146692,1.82400939964683,2.0795,10.1231026010338,7.6391940398547,6.26273662539054,0.33234210733111,3.16862224692299
mp-774702,Li3BiO4,2.03759629465702,2.15111727016451,2.19645042511776,1.4652,11.1702500704183,7.33617821621929,3.24718582102045,0.532087699677374,2.1873484023599
mp-4002,Li2ZrF6,1.52036586057436,1.52036585070831,1.53187336291222,6.562,12.7307490100727,11.5961315165549,10.5819021867818,16.7864815639152,0.154072713055688
mp-768150,LiBi3(BrO2)2,2.42027928347123,2.42027928347123,2.24877690089524,2.6654,12.690779695998,7.63948426987485,5.60769696616705,0.619160886092831,1.79341542926809
mp-772232,Tm2P4O13,1.66344613979533,1.62754494868805,1.68167459694199,5.6294,14.5184534246932,12.0535649118041,72.4005198206173,0.525838660292766,1.91553605475451
mp-669311,In7Te10,3.07630623150557,3.07398582299919,3.07880497108862,0.8311,11.6616357332117,5.72225419116731,2.82219063448346,0.134118724748759,7.81041511278751
mp-758059,Ba7Pb17O24,2.33872905869833,2.35051714948009,2.37866952307377,2.1217,14.9057314108954,8.99491274060417,3.95337979867265,1.32539532049028,1.00743999774932
mp-981,SrF2,1.48860424895269,1.4886040272685,1.48860420192877,6.8584,14.665558083995,13.7402383629159,2.80056116443799,0.525166711217332,2.26122854320193
mp-27975,NdBr3,2.08397946487004,1.7336182624788,2.0673938279873,2.9862,9.8211965194017,6.92858765746167,4.63005766898701,2.26438990431462,0.657600088854224
mp-555119,SrTaF7,1.55896661606335,1.58108891590574,1.55392579616917,5.5655,12.6957439959475,11.2215386753955,8.37730300505394,40.6980484745232,0.143941362725574
mp-3667,P2S2O3,1.59123065267107,1.5920618612353,1.59334082982895,4.0676,10.9465692635428,9.48918809360699,6.15621904163564,0.767159505827689,1.46594725110268
mp-754403,ZrO2,2.13328422391392,2.13324765088351,2.08340989965969,3.9366,12.5282580431363,8.26715610088318,2.31073161539146,1.1460360458098,1.305336273042
mp-543104,V2O5,2.34043052236122,1.74191778508631,2.24295036503263,2.6151,10.3409879719793,6.84665429339977,6.59637322417929,31.8132199969098,0.183031929865873
mp-771798,WO3,2.7489003928844,2.74890081123346,2.7489001946233,1.4009,14.005192278129,7.48283337253219,4.03032390502666,0.249468745746749,4.25663718494036
mp-766361,Nb2O5,2.44786189357161,2.4295008911297,2.4567844492344,2.1466,11.8439736345841,6.93722051918406,28.8431478382792,5.55286323342732,0.214757553127905
mp-753945,ClOF3,1.56157682808115,1.47238666117294,1.55891865086027,3.6773,9.87463132218659,8.94825377881014,55.2294838709529,32.6360060064431,0.048747275249344
mp-14070,RbAlO2,1.67157731798442,1.67157739575528,1.67157727311662,3.3779,13.1888055349576,10.853859763791,2.07777297453216,0.398058502249866,2.99347808034638
mp-757021,KGdO2,2.01259475304891,2.01259389843058,1.80101420038821,3.3697,11.6538800473854,8.29645003094024,4.20053716072865,23.8308766258522,0.280027158082465
mp-15575,Ho3Ga5O12,2.03011388350506,2.03011390813422,2.03011383670966,3.3261,18.1280806087267,12.4042476354338,5.92812275959081,0.311072293848868,3.38337427493601
mp-572805,Cs2I4O11,1.8949472103465,1.92973440918692,1.92826840196068,2.9955,11.6189032855329,8.36748703150977,4.18515181835236,4.94611775832425,0.441118727130737
mp-5913,Pr2Si2O7,1.83704120530814,1.82253871838159,1.823156680047,5.2366,14.2676439864753,10.7467601803438,14.5517226507697,0.548022357016778,1.89346345950669
mp-3236,Pr2SO2,2.29530040735412,2.2952999695029,2.29213937403466,3.5025,14.1506604796578,8.7267459635269,1.75881008434038,0.701745001777032,1.99358527525304
mp-17308,Tb2Si2O7,1.88237723371273,1.87128575316545,1.86519864089592,4.7612,15.241226709046,11.2179441305534,254.502839012053,0.514714096701507,1.94675536595367
mp-556330,Cs2Ga2B2O7,1.65193768950285,1.67428846976858,1.66681734452219,3.7986,14.4371933554384,11.9349505618665,32.9253917493943,0.489466336990414,2.07341311599594
mp-541090,Ce(SeO3)2,2.37882943903089,2.28603685228388,2.47977407841924,1.2723,5.62757847533269,3.3663651859556,6.68867668268647,278.530234347445,0.153096678754814
mp-752414,Tb2TiO5,2.08925582923681,2.12398730693006,2.14158774977819,3.393,12.2668101479633,8.08928783960484,25.2506078405544,90.8597069445063,0.050608985744569
mp-12160,Li6Ho(BO3)3,1.63356304133021,1.67400983270708,1.68593405564986,4.7449,13.9870383184359,11.5616965328878,3.12816104418889,0.646598578301002,1.86623122746944
mp-28204,CsH7O4,1.51384650476856,1.5189126472579,1.51800177206748,4.589,13.5580905329581,12.4194065248061,42.1205717274788,0.47053095003025,2.14900007841109
mp-4274,SrTeO4,1.90233378774599,1.74099070933765,1.85302399067039,2.2533,12.7772734974959,9.60151690590073,8.72051259373656,0.603672566774998,1.77119931390746
mp-578938,La2(MoO4)3,2.00869075270436,2.0044801770035,2.0038210324278,3.6577,10.5369854237688,7.28761247384641,56.9346154910188,16.184762500794,0.079350517874499
mp-7973,RbNdO2,1.99632303247746,2.00307770942617,1.86107267993488,3.5035,13.4265532992827,9.50780856114734,2.96949394765711,0.632000254280712,1.91903556056654
mp-15541,KNa2Si12(BO10)3,1.53659166013616,1.53659160807288,1.55719832712471,5.1362,14.5967248971382,13.1036138255107,21.4399941116999,0.569947916447649,1.80118808982529
mp-560458,Rb2U2O7,2.15500044083522,1.81595228186205,2.05774923156346,1.6672,7.81671074229259,5.39689861348394,4.27693174049406,5108.96781861729,0.234008210269939
mp-5692,TbRhO3,3.32376117072211,3.48506060779436,3.14162369802623,0.872400000000001,10.9251545084725,5.07079407990522,3.36175977113885,29.4393407334737,0.331431405767306
mp-779637,Ho2P4O13,1.66357984779812,1.62855871248168,1.68239464157492,5.6319,14.370304188859,11.9258742951136,64.5856540619213,0.52936704171791,1.9045317841662
mp-777503,TmCrO3,2.2830078098859,2.30976513957588,2.26342400579299,2.5676,19.5110978305134,8.6172956021728,4.01478021109762,5.24086131202968,0.439887968603438
mp-867153,Rb2MgP4(HO2)8,1.54459876667049,1.51030959077932,1.52686890727397,5.3909,14.4430650934878,13.1250637492727,58.9820740252599,0.520584861300087,1.93787070825891
mp-768368,K4I2O,1.71512231050733,1.71512231050733,1.72883965711109,1.2568,9.47092278701928,7.57128267750445,85.9175978837052,0.365749110474282,2.7457537059009
mp-23519,Ga4Bi2O9,2.12480109892667,2.15660325280289,2.18953331557206,2.8993,17.0743565786069,11.0869456650109,7.66197106178719,0.892056924401215,1.25151941346815
mp-754138,CsDyO2,2.04584266746004,2.04586049622158,1.99945759895028,3.0513,12.1950213485544,8.34352858464115,2.87689329292126,0.557494063651577,2.14133825460036
mp-27256,Sb2(S2O7)3,1.72256809154239,1.74076601529327,1.67566881572702,4.2038,13.4529630499144,10.7970370513214,66.2663122674344,5.51371482530087,0.196456550873906
mp-779590,La3PO7,1.94155375923511,1.85646657928442,1.93173620611097,4.1686,10.4218075587599,7.53324114865173,4.84097671975206,1.03034148625218,1.17712189365982
mp-542417,Cs2MgH12(SO7)2,1.51070644401882,1.50978321622675,1.50648333213481,5.0352,13.9386724215493,12.8474916372128,58.4769589636901,0.519184090549976,1.94319983408249
mp-555512,RbCO2,1.54181152220367,1.53449219939366,1.50991684870393,4.284,11.8786594891785,10.7824781938558,31.555146326214,12.4001154600402,0.112334962211659
mp-13694,PrCuO2,2.23220100349408,2.23833881036808,2.14541435624916,2.4764,11.5423603438732,7.35592056829561,3.13018632132104,0.684472269325527,1.78044936812047
mp-766387,RbAl11O17,1.71069117902677,1.71068849882145,1.68466031887737,4.7304,16.1288133853151,13.0294115237379,16.2141368644536,0.393639000001377,2.60207326515495
mp-25179,Na2W2O7,2.23039365807922,2.14668708944736,1.99110134096685,2.3603,13.0425198874896,8.58536405150398,268.856567456532,7.29511562883011,0.14079747452445
mp-4855,Li2SeO4,1.58359964006058,1.58697264311645,1.58259222796019,3.8533,12.0399713564035,10.4939518431585,10.0572803652226,0.850525779202876,1.27517377472057
mp-558229,La10S19,2.93463719222666,2.93463719222666,2.7744108617867,0.7226,9.11291026887185,4.69735644445769,48.9864902406504,0.465174803915814,2.17014329447437
mp-18547,NaGdGeO4,1.81111801658534,1.83079823574309,1.87182332232505,3.4249,15.9313737427821,7.96206487512245,5.98603940771353,2.68246119611821,0.539847337637537
mp-704125,Nd2Zr3(MoO4)9,1.95041597870813,1.95348884562979,1.87607990501471,3.4865,11.7211931881246,8.40505584915687,93.3325571933866,12.6345735991727,0.089862277363665
mp-540996,NdGeBO5,1.88059307666491,1.88365570633277,1.90704191878417,4.1067,15.8565143438039,11.5705391209785,12.8208842186786,0.535155685350509,1.94661285076236
mp-24668,CsHF2,1.43530226084961,1.43482963100153,1.43467408145544,6.5186,12.7092321322271,12.4685305831552,6.75405859583114,0.523083495334797,2.05979980973181
mp-7264,Nd(PO3)3,1.68223250473887,1.68591047508461,1.62879165641281,5.4789,14.712677454399,12.1528112245628,109.992100266508,0.587600849670646,1.71092708617496
mp-510273,CsSbO2,2.01752377185499,1.7742392341508,1.79932179167596,2.4016,11.048649994208,8.16983919379538,15.4308877502435,1.14240996408935,0.940147590760332
mp-569152,SnCl2,2.22675086841793,2.11989021413846,1.91861731463051,3.1744,13.4363777069972,8.96956421144294,4.38968046078472,2.07280805978589,0.710244351184079
mp-31417,Nd3TaO7,2.18947061181465,2.19121260949274,2.15751926294993,3.7206,13.8464095164492,8.91254224795645,2.70027675926566,2.54718660947888,0.762922413554761
mp-726,SeO2,2.14115456705022,1.87271850260524,1.87271850260524,3.6147,11.8706265695069,8.37235483531128,2.06325080611101,1.23541446662783,1.29411700009013
mp-1821,WSe2,3.6594712459589,3.6594708975479,2.00781754649171,1.5846,12.3176389484756,5.99696549949067,2.86504167257889,0.67700278507379,1.82613386064949
mp-7118,Rb4SnO4,1.72055917654697,1.7197856232682,1.72068601726172,2.2313,11.3864648869947,9.09915552993194,11.7540610665757,0.417187512671101,2.48208065095974
mp-4481,Ca2SiO4,1.72788180730049,1.7247110192725,1.70596160859499,4.3308,13.9398380416483,11.1449936193923,11.2141764623885,0.570697658105613,1.84141413214302
mp-554821,Tb(IO3)3,1.98571525652597,2.10702442083617,2.05021273774211,3.4104,12.2954303841939,8.34993606141518,4.18619735780365,2.36876743890879,0.661040761138946
mp-759223,Sn(SO4)2,1.72036948938302,1.74775051709333,1.7009696293585,2.3798,13.8634278028757,11.0611701930462,34.6042721485822,0.577539515175243,1.76038142162145
mp-2789,NO2,1.49304606091038,1.49304603411951,1.49304599393321,2.8134,9.09043826667634,8.48617989983613,3.83927967211916,20.3381203036119,0.309634278519595
mp-22524,CeP2O7,1.93596064526116,1.93596064526116,1.93596064526116,1.5869,5.35660385187304,3.82431441028473,14.9080042219432,6214.11307182028,0.067238983898273
mp-760513,La2UO6,2.43843474999845,2.5005630625921,2.50136288850698,1.762,8.44481037105116,4.8898194144119,3.69079484729981,269.051919312272,0.274661101804115
mp-3831,SmPO4,1.91954788947814,1.84151323644442,1.84155362126657,5.786,15.909209202105,11.7412943477175,7.55101046328039,2.36472013969461,0.555315629332289
mp-752404,Ba2Sb2O7,2.12315561134835,2.10658615299731,2.10496352937527,1.3309,13.2127242646387,8.7368293195305,2.40394292327553,0.329596447001825,3.44999654250442
mp-7193,Lu2Si2O7,1.75150195832034,1.80412630932538,1.79832953598611,4.8454,14.6098783819674,11.2589300324498,5.55597036374609,0.476119151784334,2.28030114896847
mp-505654,V2HgO6,2.70820569196655,2.37495988176643,2.67808748363454,2.0322,12.1390232854532,6.7983451747559,2.1652507881512,7.38427103396546,0.59726324757107
mp-557340,Ge3Pb5O11,2.10831438120599,2.10831454010069,2.14702655549483,2.5384,16.1279964742662,10.6228800776932,95.583305469531,11.1797391945315,0.099909602929973
mp-638261,La2GeO5,2.03236632524749,2.00962101899836,2.00701741895779,4.0702,14.0940397393374,9.7020465709287,5.7676307111666,0.586991683488975,1.87698306862567
mp-2651,PrF3,1.68761921652961,1.6876193380025,1.67138621808366,7.6284,14.876461454527,12.1626950769992,9.28810120515407,10.5833321748214,0.202152831509981
mp-30981,Te(HO)6,1.64111187004421,1.65401905974508,1.62222322138478,3.0828,13.4412047124764,11.2916713354778,27.3745529380431,0.683900522841671,1.49873123541642
mp-771750,Sr(IO3)2,1.87247747650005,1.82885633388738,1.76581530461144,3.7082,11.663289766035,8.80895448826322,11.3503901430018,4.30198701395243,0.320553423367226
mp-23058,NdClO,2.09939657282754,2.09939657282754,2.0349271068026,4.7664,14.0091251680509,9.39288053958085,2.91428907182373,0.578187013279157,2.07268106764824
mp-1443,Sn3F8,1.65582157553282,1.69151884411614,1.74073334546104,3.1806,14.6786302646655,11.9006145132698,5.26562315889164,1.63207625326298,0.802627515219664
mp-505396,CsNa3PbO4,1.86298758181583,1.85845681951451,1.86415355322463,1.4987,10.5687409717185,7.82216386046389,52.5679125735,0.478531412304154,2.10874998498255
mp-733637,NaH8O5,1.48134608717882,1.48017332093238,1.47485986113936,3.518,13.4945723776756,12.745681941607,260.889184286073,1.24730031404378,0.805564583764249
mp-600023,SiO2,1.35385623682871,1.35385623682871,1.35385623682871,5.488,11.9284719916907,12.6779553756985,1044.61351384104,0.681576198119876,1.46814467714369
mp-769906,Tm6WO12,2.11743097408156,2.11743131175488,2.0660357910743,3.4507,13.489347271514,8.96092354389376,4.51777066600562,7.68339463116,0.3514989158402
mp-504662,SbClO,2.06279197448507,2.03440160981061,2.00079428977594,3.1185,11.0681255042089,7.56507473025526,3.23124482332411,1.86830649132391,0.844722337921443
mp-13843,Li2TeO4,1.82514705708883,1.82514705708883,1.86900218833473,2.2764,12.2041500429127,9.13469498916948,12.2703062229686,0.651734998687815,1.61586352327838
mp-19931,Na2MgAlF7,1.37563819371229,1.37537598132293,1.37611332745526,6.7162,13.7624346065958,14.2937740653918,28.0359386669908,0.57114332028021,1.78654252228175
mp-849597,V2O5,2.10687648427714,2.03775406268764,1.49918712307704,2.641,9.17527149507507,6.72544038694664,35.4922996908356,4119.16632469471,0.028417893124522
mp-706400,BaP2(HO2)4,1.64340132956013,1.560364816317,1.60138561876895,5.5979,14.7958034794862,12.7424919151884,12.0510736953688,0.502435230548241,2.07328644869849
mp-4871,ErP5O14,1.64068149864622,1.64073286673974,1.62990728570677,5.2931,14.7009876526382,12.3661091496439,11.1554638030671,0.607507703394331,1.73571183357269
mp-8175,KTlO2,2.38783885553443,2.40637259791579,2.00270880559306,0.9891,14.6522164893251,9.13013389906317,3.16202131327279,0.319531572365551,3.4458345975217
mp-1747,K2Te,1.8632101411274,1.86321031019045,1.86321019748175,2.1845,11.0083298022904,8.14200747400793,15.9677365945379,0.313908697398923,3.24826595614761
mp-3857,Ba3(PO4)2,1.7994580711981,1.8000443661199,1.7939642973036,5.1774,14.5512717441973,11.1341960627975,4.04577603838028,1.37568587276364,0.97408150095179
mp-557522,PCl2OF,1.44302674264894,1.45947830747839,1.44648442784566,5.0485,10.8803902709398,10.5352920844218,165.945899822104,1.06797721993905,0.94237562032561
mp-12509,YZnPO,3.11860314564069,3.1255561761069,2.82182097412292,1.4247,15.9270144238547,7.92003937721471,2.07308185606663,0.895324456944796,1.59928715059037
mp-773298,LuCrO3,2.27291553736605,2.30025271437727,2.25610436150458,2.5479,19.7348540502916,8.66746867335995,4.23398720995616,4.15721040852868,0.47672991112117
mp-555909,Tb5Se2Cl3O10,1.97954907996746,2.01150714888116,1.91908782237812,3.9467,13.1302564833722,9.22757623660482,248.575271332798,7.44826693222804,0.138282346538516
mp-557810,BaH6F8,1.38969453478094,1.38969451679137,1.38712736617803,7.6268,13.7627750977744,14.1054581769107,34.0530407044418,0.586368957188508,1.73477683443231
mp-1146,ThS2,3.09755497772033,3.06733353419546,3.07735488853658,1.0319,10.1049153888535,4.9531287263089,0.765753340379662,0.908880709289072,2.40615794323545
mp-6122,Ba2NdSbO6,2.08219140570698,2.0839023513591,2.07536477275683,3.7322,14.2833701960602,9.56645866358188,2.90690766553027,0.420170023483375,2.72399709371843
mp-696291,ZnH4(NO4)2,1.65349758391115,1.51038726821964,1.5924268774421,3.3141,12.6569600959229,11.02363000819,5.18523216369041,12.8170598488125,0.270876409099642
mp-31259,Bi(IO3)3,2.11357495727026,2.24337273318546,2.17945162598301,2.8994,12.19384810672,7.85066372897674,6.86775027377314,0.875692546611613,1.28756139755565
mp-706976,PH4N(OF)2,1.41596100228785,1.47356259792382,1.42059342881769,5.2313,14.1937296865783,13.9027023885786,57.2262430881138,0.578425669493882,1.74630510502518
mp-554081,Ca2PClO4,1.72516225613709,1.7183885765449,1.73914363984117,5.4188,14.2390751146507,11.3309465109035,7.61310712173528,0.527775095818276,2.02609888466268
mp-16978,Ba3MgSb2O9,1.97612756420227,1.97612755661167,2.01317709355138,2.6494,14.2215195087356,9.91152377506139,1.93478883311135,0.400716004769285,3.0123852360474
mp-1153,Li2S,1.96507873633603,1.96507842082702,1.96507853023741,4.1906,14.6297787810557,10.3047660082202,1.1140256814054,0.399197724043138,3.40266967643294
mp-772156,ErAsO4,1.8884313649164,1.94963428108966,1.84821551773596,3.5829,14.196249640161,10.3337832428559,3.82387745690075,0.452695358893962,2.47050571504742
mp-608320,NbNi2BO6,2.18684558439776,2.20227953720685,2.15271882279131,2.923,15.1344210997167,9.60099771516582,3.58344794118914,4.67644122197754,0.492898662873464
mp-754027,NaSmO2,1.96279742459582,1.96279742459582,1.97797881687343,3.6535,14.131271453678,9.94099084320755,16.9717383767352,0.413348787485683,2.47818586798334
mp-554808,SnH22(Cl3O5)2,1.79257940130974,1.55716071424885,1.62019903406958,3.2043,14.1125902427924,11.7233472615664,1041.64116009068,5.67964772659595,0.177027281220854
mp-29524,K3BiO3,1.76231047491638,1.76231038128929,1.76231055719473,2.9553,10.8242461319168,8.44493285272226,36.3360701558384,3.49288537827886,0.31381711691681
mp-770816,Dy2TiO5,2.0838812706102,2.12073927676176,2.13315677107896,3.3933,12.2224368454111,8.07864171396615,24.6668356534659,100.117314770517,0.050528545076229
mp-4426,Li4SeO5,1.75353855674747,1.72681628727552,1.73402885212444,2.5629,12.3887743154295,9.79865705415021,4.3206901424014,0.823758359776498,1.44539273362423
mp-559932,KTeOF3,1.57778663639923,1.62630763080052,1.62630763080052,4.2396,12.9451222233469,11.0851988557605,26.8546106028973,1.41265400858883,0.745124972478888
mp-754534,Li2CeO3,1.85188560661829,2.2211672719541,2.29238239174881,2.4278,6.76735797596736,4.45632562302318,4.57914449022781,49.9166065890695,0.238414816460835
mp-24160,BH3NF3,1.38723016835708,1.38219858558747,1.38053183230232,7.7204,14.7152086072032,15.1653251154758,113.644328372767,0.616839203031327,1.62996742037897
mp-6333,NaIn(SiO3)2,1.74142640958497,1.74067836489111,1.73963194670597,3.552,16.3301227167258,12.897877027875,7.87597605379414,0.440106628605068,2.39914502867646
mp-552738,TmBi2IO4,2.60605869849472,2.60605196226015,2.41422836119535,1.8919,13.3662055553348,7.58953668803989,3.22437558071331,0.287594835203383,3.78725147100408
mp-2826,Lu2S3,2.47296959544593,2.47433165117371,2.46631162264625,2.8424,11.0639226491856,6.4247773039,1.18130482452203,1.19836942198767,1.68098877747096
mp-545728,PrBi2IO4,2.65669258289325,2.65674612260938,2.40102911685802,1.6221,13.091748007972,7.36677456954908,14.0080820829934,0.346129390787086,2.96048036005242
mp-12944,HoAsO4,1.87193717041999,1.92838823891871,1.89003783030922,3.614,14.1997581700597,10.3294889343043,3.82776186879284,0.456681219094017,2.45096051476049
mp-29040,Li3Zr4F19,1.51050314796097,1.52952943417248,1.51541234652487,5.6227,11.8316671851437,10.8248499925454,756.197828193764,264.110740673949,0.005108695823103
mp-672233,N2,1.22071434414444,1.22071430318482,1.33838220624753,6.9738,9.58430807414111,11.4438630103923,5.28442205227453,2.19810910879965,0.644171923450955
mp-680374,KAlSiO4,1.58161033759899,1.58161033127632,1.6094254720241,4.6996,14.493122203185,12.5751297641642,208.302483739953,0.442100755677655,2.26672853424947
mp-557177,Li2Al(BO2)5,1.55826769202214,1.53868332999354,1.61468685508987,5.6433,14.9185648739228,13.1307150933443,23.2779597604449,0.606443245972014,1.69191801149206