MP_id,Formula,Ref_index (1),Ref_index (2),Ref_index (3),GGA direct band gap (eV),Effective_frequency (eV),Average_optical_gap (eV),effective_mass_valence,effective_mass_conduction,effective_mass_transition
mp-573697,CsCl,1.54007443651273,1.54007445599231,1.54007433911484,4.8592,12.2031758406531,10.9826258709354,3.08295617208208,0.427177635925258,2.66531052079762
mp-22872,SbCl3,1.67110240559937,1.62790211315054,1.84668244698432,3.7962,9.29484871788126,7.45003767470303,2.96186392513896,1.51601917737107,0.99724749638062
mp-570747,N2,1.29549523349181,1.29549523349181,1.23743540437471,6.9561,9.87665447655317,11.53008776543,22.8600560302838,1.78808323534764,0.60300250634775
mp-28044,TmCl3,1.77408071687846,1.77112615869113,1.78942650310092,4.9506,10.5852350530476,8.18614838044061,4.31140168116969,1.30389735964639,0.998874662160141
mp-8943,PtF4,2.19281780136882,2.02081595896311,2.16054664610603,1.392,7.99189546951101,5.2565011351018,13.1453388428159,10.0383944767814,0.175690115844586
mp-7667,K2S3,1.93286114866019,2.04568193764329,1.94218930591227,1.3748,10.2214850808948,7.1718424865278,6.72091087030949,1.73259712817741,0.725957575722991
mp-22885,XeF2,1.52670053383105,1.60094798166586,1.76928882040214,2.7845,10.2300182109947,8.63217066027635,3.50596008370537,1.91333179606552,0.807877078921559
mp-17146,K2S5,2.04545431628282,1.94553296296927,1.88268006044575,1.9546,9.78391364199394,6.91427903294774,17.6425920057849,3.79260238155753,0.320352208191226
mp-23648,Li4Al3Si3ClO12,1.56062152042063,1.56062152042063,1.56062152042063,5.2612,14.0206143089267,12.4287844782354,30.9698873650364,0.500734596905272,2.02935535277778
mp-556548,Bi(BO2)3,1.93403463516039,1.9838354720087,1.94341254755649,4.1087,15.5185448135759,10.9878497929277,6.33110243419864,12.8196686756667,0.23595551053968
mp-19410,ZnCr2O4,2.25410700056586,2.25410721129231,2.25410704271115,2.6567,22.2853366938983,9.12229481978842,0.000564820039534,0.000564851955502,3540.85081401657
mp-554577,Li4P2O7,1.53615286674211,1.54217635826776,1.56008020627146,5.7096,14.4414976732278,12.9385203576451,26.8177394988772,0.608140986210915,1.68164429097308
mp-28541,Bi2P4O13,1.82574249553435,1.76919951673066,1.84273616396922,4.6354,14.7269125430656,11.1804539074635,554.081322052158,2.99949028081872,0.335194767647619
mp-14964,Pr3TaO7,2.19640575941696,2.1921440395193,2.19756691365701,3.4717,13.977636639312,8.94181208622956,2.7526084056494,18.7283622589525,0.416686729130729
mp-28257,SOF2,1.40120781114009,1.3684076037497,1.40161956678694,5.2884,11.0104973555855,11.2670038813368,52.9936233912018,15.9757421127584,0.081465096118637
mp-565796,Y2WO6,2.17092834289849,2.13996735021822,2.20863508982358,3.2069,13.3781207185909,8.63195518255465,5.99838959519853,6.5458592848483,0.31947974346282
mp-19081,MnMoO4,1.94599352516908,1.94448630234311,1.99055952686676,1.5178,17.8298847407712,7.10431949870817,3.29241125408625,2.94267258161603,0.643555901258584
mp-3476,P2PbO6,1.7812772861068,1.75530638066407,1.76146546943163,4.4851,15.6454492624269,12.1812102000849,27.134298898831,1.0751257888076,0.966977447097458
mp-559637,Dy(IO3)3,1.98353129040104,2.10287480606906,2.0476397485886,3.4306,12.3046831615809,8.3668457240835,4.54455192762076,2.36604040039729,0.642690747320492
mp-2883,Sm2Sn2O7,2.11564232090398,2.11564223582344,2.11564223818679,2.703,16.4366481026062,10.8506496791663,1.9441456291121,0.34046395621575,3.45153323776902
mp-510301,Er2MoO6,2.19216861349669,2.16317120681651,2.19565817239387,1.8892,11.8491724204325,7.61440189147398,109.522689766651,40.9594905522303,0.033544894290249
mp-36329,SrUO4,2.25691017322356,2.61961153036094,2.6424061724118,2.1538,8.28514268355076,4.75749710645958,2.45451710896325,2176.99989621791,0.407871460032154
mp-3859,Ca2B2O5,1.74372437328839,1.65664978495758,1.71513659514337,4.7391,14.223900846608,11.4689199396349,33.3567565318325,0.550711616270648,1.84581134140452
mp-4340,TbPO4,1.79480460496401,1.84283941242855,1.80897881137398,5.8816,15.7214530144571,11.9167220566447,4.52512685247388,0.563359438387386,1.99605395188028
mp-17612,Ba2SiO4,1.86720287328399,1.89815481191604,1.86335974250814,4.6289,13.8846025304561,10.2027576595133,7.57622271419319,0.493080857158126,2.1600568379788
mp-7137,TbLiO2,2.01380628661249,1.88904985111563,1.95899072228533,4.5573,13.5730047802397,9.60948164136195,4.50563174880238,0.711872305093502,1.62669077754087
mp-29789,Lu(ClO4)3,1.56480095539337,1.56525563087951,1.56214701932949,5.7305,12.6765378529725,11.2093483290203,19.1145197865972,1.16763025587016,0.908751748506507
mp-12931,SmTaO4,2.19940115031342,2.14157188065215,2.11994659602548,4.2949,14.2208768523494,9.24624910788819,2.95409262177764,1.84414682592746,0.88076959406995
mp-5005,Mg3(BO3)2,1.71025779635703,1.68755063331445,1.68711562140833,5.4452,16.43060164519,13.3294503601812,10.3787986186644,0.454930030241723,2.29449049238276
mp-15922,Gd2ReO5,2.39093127672043,2.44205832239937,2.44205832239937,0.799199999999999,13.4468749645104,5.52563835377689,3.22847012093141,1.55168620046398,0.954204433162825
mp-4006,ErPO4,1.78998339936436,1.83568253246579,1.80351941769419,5.9196,15.7720388975145,11.9918611229542,4.38871795279538,0.510741469781273,2.1857947175424
mp-12236,Er3Ga5O12,2.02806263216894,2.02806272092359,2.028062723389,3.3298,18.1594805746397,12.4367986003714,5.85873522405257,0.309524945135874,3.40144268096852
mp-4991,Tb2Sn2O7,2.10075798701326,2.10075791561046,2.10075813933922,2.7237,16.3166949756127,10.8370801314694,1.85383432225232,0.339725368153521,3.48297662894282
mp-559426,Pr2Zr2O7,2.21083173941392,2.21083167835093,2.21083187737105,3.4581,13.8377089733465,8.80029181926598,1.64944516582047,0.893697710972239,1.72521105353591
mp-9159,Li4NpO5,2.17539186125167,2.1070906648742,2.12182978110875,0.6391,1.40824070817535,3.15839661916371,183.073738168954,9.79342440355583,0.107571609464564
mp-3154,Sm3Sb5O12,2.21636843958761,2.21636833130236,2.21636847568269,3.137,13.5163919292114,8.57795575627076,5.24990706610728,3.04051781524914,0.519370909341424
mp-27583,Sr2P6O17,1.60831398986641,1.60316731815491,1.59922259551321,5.3295,14.6072111875556,12.5642221693583,59.7889651880335,0.567560187053426,1.77865316795396
mp-16771,MgSe2O5,1.93204562575525,1.93484495244451,1.8975871047201,3.0277,13.1976669990417,9.48705955049058,3.1913148017017,1.66419374091131,0.91424204833659
mp-28971,Rb2Si2O5,1.55063641450857,1.54921204810704,1.54336047636319,4.0395,12.958016981457,11.5956885216782,24.2319302567482,0.480443753353699,2.12267696334642
mp-27727,CCl2O,1.47830319285321,1.4498426293912,1.45172001088364,4.5898,9.57290792587724,9.18677209228241,73.643142745501,38.0664931828527,0.039848818802261
mp-23419,Sb4Cl2O5,2.23789147860212,2.16875474408703,2.23096400464015,3.0618,12.1298701754841,7.70918525994674,0.727288731406265,1.5810734643053,2.00745142227705
mp-7858,MgUO4,2.06501516701452,2.34726404138946,2.22676610581354,1.7479,8.1187371264921,5.15895992683734,11.7853113548268,14.7342649891874,0.152720397254376
mp-17177,Nb2ZnO6,2.48097616675372,2.31954958558768,2.34347653071244,3.3047,13.4007466000431,8.01678168131661,5.25646044114765,8.56137316986574,0.30704577873696
mp-3962,LaPO4,1.92615257443433,1.8596662630698,1.85901782132394,4.5249,10.799618669792,7.9147531598793,5.67545466452817,50.6758620084866,0.195930598100019
mp-555236,Tm2Te5O13,2.14365837530144,2.10851977462864,2.13632802490629,2.9076,13.1533735001162,8.63474923711259,7.534937351109,5.56635469139129,0.312365891586651
mp-3118,Mg3TeO6,1.83223466018957,1.83203406900636,1.8324264405427,3.1544,14.9426829422795,11.2280472566318,6.76673448921291,0.440216082675457,2.41939346107355
mp-5489,LuTaO4,2.13915651133806,2.16010160872122,2.08871377407246,4.402,13.9457192688364,9.15555259390766,3.21738626069152,3.78996929243292,0.574665678606695
mp-4394,Pr2Sn2O7,2.13195794517622,2.13195784198469,2.13195777631735,2.6415,16.3518425502823,10.7238642521354,1.97949036442643,0.338726530856973,3.45741459013209
mp-19169,PrVO4,1.99506643247788,2.08898295589026,2.02341940042098,3.0311,12.0080414403152,8.19630653319098,4.88644243489606,1.18949735079676,1.04533910022692
mp-557211,SiO2,1.35882277358013,1.35882274046323,1.37863819764288,5.5536,12.1780760892435,12.784238840827,22.8051209500234,0.655049286537086,1.57045248588042
mp-9380,SrGe4O9,1.85425132061433,1.85425130982831,1.85525228742616,3.0818,15.7497338769234,11.6996753527721,43.7483445222223,0.38060833027003,2.65023087504043
mp-562345,Cs2Si2O5,1.61027026613547,1.61909412635585,1.61097058011622,4.2397,12.7612761280144,10.9034627297933,14.2006257967969,0.41910389900985,2.45646261194699
mp-540540,PaBr3O,2.07419939012622,1.87004433102534,1.85004842909584,1.7581,5.40770943909859,3.86904058290741,2.62836159053355,6478.21508960068,0.380619518530387
mp-23560,Ge3(BiO3)4,2.13572927123266,2.13572934146628,2.13572926655042,3.5528,14.1435662392137,9.26163792372153,3.98867685327615,1.96257634956275,0.760244022779843
mp-31905,Ta2Mn4O9,2.17591255798573,2.17591265449696,2.11271898746615,2.5074,20.5972152170723,9.17427681076529,4.76342242516349,5.62192466231936,0.387808119178349
mp-14484,KNaLi2(SO4)2,1.50084651780254,1.49143413867324,1.49529962214935,5.3064,13.634149296533,12.6989626879107,159.125434657676,0.604642520624475,1.66015414276793
mp-554831,Yb4Cl6O,1.82204105606872,1.82204085299973,1.83605502368529,5.2558,14.4065420089039,10.8562810569096,4.56943329627122,0.339983383217855,3.16016574012855
mp-21332,LiGdO2,2.08010094947337,1.93419348049775,2.01933864173397,3.8713,13.5474296143245,6.75179531463213,4.21269530623612,104.52595765906,0.246944719934339
mp-28433,RbClO4,1.46937074286921,1.46508439347363,1.46574861419003,5.4986,12.4632606647026,11.8914334597713,36.3829661821969,0.622544957506059,1.63379508328147
mp-18784,DyVO4,2.02307601191848,2.11065925956797,2.05008117400263,2.9781,11.6424228753566,7.86080700672147,4.65177964848103,1.26540200772485,1.00523418383231
mp-29970,Cs3Sb5O14,1.98422998163015,1.99333877451877,2.03230417998881,0.975,12.1469176979499,8.40990937715695,111.292906931781,0.285656428904889,3.50969418805682
mp-31001,KSb3O5,1.96475575581292,2.07745145791665,2.02470414381954,3.1643,12.1461754649713,8.3393753694742,5.83273713649952,1.89363156207149,0.699531926656301
mp-27914,Na3BiO3,1.88268695220422,1.88268689377708,1.88268694954844,2.8361,11.2346295531844,8.22919521029155,17.6631503641678,0.759783983500752,1.37277861181427
mp-23023,LaBrO,2.1792810970593,2.1792810970593,2.10399571767625,3.7261,10.6212258041462,6.90430995082054,1.50482140311872,1.26291163918366,1.45635172045925
mp-680683,CsB9O14,1.54267055134919,1.54886409991322,1.50277493657567,5.4822,13.9821247372999,12.6658310383509,51.2523229400995,0.620378255992373,1.63143111990885
mp-21949,K4PbO3,1.88174380827997,1.88779702298738,1.87163502585306,2.279,11.6953706917591,8.57639498022482,6.99094506551059,3.48445136112416,0.430031403031456
mp-31415,La3TaO7,2.20100010676965,2.19229608857928,2.20060340361456,3.5963,11.3255098474427,7.23799416527209,3.50964617182971,5.70278480161205,0.460281933151692
mp-3374,Nd4Au2O9,2.15094228885854,2.37114414787461,2.39190762572471,1.9974,12.3894943939318,7.61222262385262,14.7249250427136,2.28981009582204,0.50462949910716
mp-23526,KClO4,1.47828537840297,1.47336073654757,1.47289810238183,5.5675,12.8528535219951,12.1795661133215,22.7833141898455,0.655566928641553,1.56928903564238
mp-9216,Ca3Tl2O6,2.38427980111395,2.33981089620508,2.38031431117825,0.731,14.1052092038348,8.47630776158677,1.84488231375776,0.350735099277584,3.39319461863472
mp-16980,Rb2B4O7,1.57086459632904,1.56915635294893,1.59470606068956,4.6183,14.3166172993824,12.5322545859248,84.9135681332547,0.591596786145187,1.70211716862292
mp-561277,K2PbO3,2.21966237973256,2.21966211843154,1.94491182833567,1.2426,12.7336119722946,8.36397209193188,9.20620822395708,0.41625963617805,2.51096914118374
mp-28857,Pb(IO3)2,2.24533376138159,2.20346208499261,2.19285159096552,2.8496,13.7836401243503,8.75578416263263,4.28988190879958,0.794308876846247,1.49206274255809
mp-562442,Cs2SeO4,1.61443829860419,1.61532242292367,1.6120966999532,3.8006,11.9207460829134,10.1818327094934,42.9018325486335,0.58966672019697,1.71918224845968
mp-31116,LaScO3,2.26545948540246,2.24472887672431,2.21791311597186,3.8831,11.2646893367513,7.07882946082599,2.68433508075579,1.65026422002256,0.97849530423979
mp-13974,Ho2SeO2,2.35833745676907,2.35833738044411,2.35304547129884,2.3245,14.1765669978958,8.55312043670637,1.81654467774107,0.644307722011517,2.10254909590654
mp-504922,UPbO4,2.42650162991909,2.50101439220169,2.44221554740772,1.5344,9.40983556157186,5.4902077609551,1.03271684191762,87.6815997454844,0.97972454083453
mp-15960,Li5AlO4,1.68846283346717,1.68063655797439,1.67785405205578,4.6871,13.8317523334039,11.307802708317,18.4454063335465,0.575317329062403,1.79238521890406
mp-559939,Ba(PO3)2,1.66678518411942,1.64242255220756,1.65812728401652,5.4349,14.6756481983454,12.197785580495,23.94537892883,0.500311940640021,2.0405147266353
mp-560278,Er3B5O12,1.90541583912804,1.85561195566314,1.90652363216405,5.4264,16.6687001994609,12.1706235468672,9.81782472151087,1.657828409954,0.70505429159801
mp-558358,Ca(B3O5)2,1.61865664055105,1.65037045538267,1.60543821743473,5.8277,15.0232287786877,12.7392723724545,18.3406436556105,0.681723369868078,1.52139435956629
mp-17114,Nd2Sn2O7,2.12623502463862,2.12623515397521,2.12623507167011,2.6688,16.389103709127,10.7730408985737,1.97648142580135,0.34103659005566,3.43818629083679
mp-5572,Ho2Te5O13,2.1212417023998,2.08917894398733,2.11345875048462,3.0245,12.7970401581683,8.47441512361898,4.20054383504532,4.57687806994139,0.456553955901361
mp-505603,Pb5SO8,2.19924494315663,2.17716528541128,2.15777329207681,2.4636,15.607976667598,10.0516318868394,6.20800791049384,0.79122011252739,1.42495307327114
mp-5504,BaCO3,1.71547616421797,1.5500159418535,1.70960839375572,4.3944,13.0996639044177,10.8700748641915,55.082978230701,1.05126313336333,0.969391058471295
mp-28041,Pb9(Br5O2)2,2.21042484830405,2.36238301509302,2.36238301509302,3.0013,13.8661634337767,8.49812559134177,4.04888698111136,1.75925271792271,0.815404621723358
mp-554583,DyP5O14,1.63270927908186,1.63275376588143,1.63098533408489,5.3016,14.6158704232481,12.3343020210004,13.6040973181518,0.619170698580888,1.68857077317232
mp-4138,Rb2CO3,1.56949705001316,1.46159224820057,1.5627283001213,3.2778,11.9744802106788,10.8485388197332,36.7161751133299,0.578564209041108,1.75565258172047
mp-29129,K2Te2O5,1.94631977331578,1.8131331390717,1.85696501582555,3.4787,12.4834168300791,9.19185189179902,3.76680106841918,6.61835106313003,0.416572290122878
mp-15743,Sr2CeO4,2.16125345112506,2.03274442810699,2.09855209847171,2.2659,6.98771655440607,4.64722489058261,5.36014476558286,266.141574314957,0.190319524095054
mp-504777,Ag2Mo2O7,2.46794665866181,2.26317731298279,2.40142923276952,1.8998,11.0352157553326,6.61021953142734,4.64756796761463,3.58077133112003,0.494435737995956
mp-560098,SbO2,2.23055832248341,2.33894779548411,2.39163057138848,1.9089,13.7947437794412,8.42852472766965,16.9018968096798,2.28129939869771,0.497511629447191
mp-17412,BaPr2O4,2.15755939895058,2.10594404958916,2.12665050490202,3.0743,13.4705076687094,8.84098707098956,6.76846598087677,0.863585051267248,1.30570750131554
mp-3901,NdNbO4,2.22063673526311,2.16505255132526,2.15069561305174,3.6582,13.6813667308793,8.80837687156986,6.77279750170494,2.76465990630973,0.509357618411114
mp-17765,Ta2ZnO6,2.38484727183944,2.36700387409907,2.30094287847395,3.1082,14.4039118138628,8.70724674250411,5.34264704789347,17.5214726489852,0.244245963829586
mp-23493,Ce(IO3)4,2.36391461351716,2.11949460957088,2.11949460957088,1.4876,6.30066387746329,4.02206172897886,9.31414537085718,65.920064255573,0.12253346902164
mp-5889,Er2Ti2O7,2.46230395158681,2.46230399829103,2.46230404093402,2.7098,12.1257220850269,7.06165759160639,1.3056407733653,1.33937732312978,1.51252305077731
mp-27618,Na8Ga2O7,1.7557006777922,1.75236165217115,1.74067621055727,2.285,13.57049178895,10.6635282213925,24.4485455994101,0.346540987209163,2.92656377195337
mp-3472,PbSO4,1.90864867380039,1.90581922542512,1.92694991891331,4.1977,16.1691346917409,11.6658193049298,2.70975828541205,0.924267416204122,1.45097456272069
mp-556017,Th2P2O9,1.75850364230501,1.7359153579596,1.75944439525664,5.0734,11.5349603150963,9.05528212045623,7.00692306986368,105.137511299677,0.152227348470214
mp-30143,U(IO4)2,2.24475918752992,1.97337130312569,2.28440968742474,2.1139,8.55707667118001,5.53348384416694,6.89451181982039,77.8529530428734,0.157887629603081
mp-565260,Nd2W2O9,2.26426378542784,2.21509230507444,2.17059066615518,3.5182,14.2623509538943,9.05040762363158,11.5300892083111,7.88668572799767,0.213525572020161
mp-3444,ErTaO4,2.18257393460107,2.14606890616308,2.12509861418241,4.3782,14.0231107033255,9.12628480187164,3.29793400403221,2.36532955126537,0.725994206301406
mp-9468,KCa9Mg(PO4)7,1.69048521732667,1.690723658674,1.68846923276677,5.3068,14.4952090101916,11.7955712759557,57.0205775492076,0.540179039684791,1.86877559309984
mp-3142,Ca(NO3)2,1.58608913368701,1.58608913368701,1.58608913368701,3.6222,11.0160588444769,9.59011601061157,6.44828203945867,26.2220236051601,0.193215947414431
mp-15170,Lu2Sn2O7,2.08127158967781,2.08127154403264,2.08127157045879,2.6129,16.2713076597483,10.8943386253065,1.77295509666492,0.328358265470512,3.60948409846217
mp-17015,K4GeO4,1.64301750751476,1.64081228359615,1.64838621384674,2.8266,12.284917369469,10.2873379493326,59.3717178184477,0.445518634274575,2.26141806207913
mp-28713,Na2Te2O5,1.82987835934523,1.9110785488828,2.06787031750059,2.9384,12.6594124415543,9.03677244591611,20.2484018629245,1.87977755663185,0.581364451393299
mp-541846,P4O9,1.55503549477174,1.55805656187444,1.54109846213667,5.6226,13.0842477423204,11.6770909644048,6.00364279142461,4.44024449900452,0.391778362766917
mp-29505,Cs3BiO3,1.84198997011384,1.84198997011384,1.84198997011384,3.0775,9.59311274693914,7.17215602971776,14.8245797726585,1.99630012634767,0.568382220435025
mp-4092,SrSeO4,1.76428378102844,1.71317289553623,1.70791515597233,3.512,13.2862542202649,10.5672539210649,14.0761344526151,0.581548836232508,1.79058827406265
mp-505227,NiP4O11,1.59431891100871,1.6031318442349,1.59403220795566,1.2245,15.0861826064724,8.07436092334524,100.219779094788,312.216259629496,0.013180978429342
mp-28535,Ca2Se3O8,1.84983666846562,1.79922790385209,1.83983859074648,3.4571,12.5979924897473,9.47899560511701,17.4806029735558,9.66305121206745,0.160693245944333
mp-644492,LuNbO4,2.18317349745731,2.1822535828817,2.32047099744858,3.4842,13.1381364515211,8.29953063511964,3.98753554940259,2.7925469407969,0.608877502927056
mp-18734,HoVO4,2.02658419267496,2.1137114632797,2.05345424833377,2.7904,11.6844753924746,7.87817320565337,4.63830030458631,1.27340498619219,1.00089234126808
mp-18957,NaMnO2,2.42108341657201,2.00782566723309,1.91246742194475,1.5514,9.94177107406786,7.0158368552077,6.74880014299638,8.76658365854679,0.262244008284257
mp-18929,BaV2O6,1.95378975839265,1.96598703963175,1.88552802418845,2.6883,10.5896975975899,7.56350172909137,15.7244205714177,8.80081889327145,0.177221138174472
mp-29910,Sr4I6O,2.02370814842457,2.02370816324884,2.02891690071328,3.5856,11.3000702064826,7.74784117943454,1.68613840961228,0.280344974106648,4.1601049289967
mp-1427,Lu2O3,1.97441839790861,1.97441838018187,1.97441842576491,4.0305,13.6402138468556,9.56691687431182,3.99674711621431,0.429957065451902,2.57601709339359
mp-27228,Tl6Si2O7,2.09709216774085,2.09709225118973,2.10840788511142,1.599,14.6989358048153,9.76218601760479,2.67020337430097,0.503895073434417,2.35904345006848
mp-20072,LaCuO2,2.21672433559069,2.22277220605261,2.13471839594828,2.5693,9.07069002946119,5.81156656411166,4.63948223048074,0.937421842129437,1.28229689362606
mp-17166,K2B4O7,1.54984508258084,1.54904790113153,1.57792292587439,4.8628,14.5106407636708,12.8788946182128,98.9365073892235,0.625561775592576,1.60867063842141
mp-559160,NaSmSe2O7,1.82971712567817,1.85969922299279,1.76285060342617,3.3052,12.9611775940153,9.81472904002191,42.6154326732763,5.55727065525726,0.203410125428176