MP_id,Formula,Ref_index (1),Ref_index (2),Ref_index (3),GGA direct band gap (eV),Effective_frequency (eV),Average_optical_gap (eV),effective_mass_valence,effective_mass_conduction,effective_mass_transition
mp-550685,Ba2CaTeO6,1.98514644799823,1.98514428694743,1.98514635732482,2.9977,14.3526652602628,10.0179122574366,2.56913173615901,0.479418888245232,2.47509513727717
mp-3653,Mg(SbO3)2,2.04106255906084,2.04106255906084,2.10415085485808,1.0375,13.9871404453865,9.44065542315352,1.71496507422759,0.271436139858249,4.26721005361955
mp-772228,CdP4O11,1.61362452571842,1.60950589312373,1.6120157040178,4.3777,14.3648437852361,12.2878479010154,75.9260255165547,0.578314592338208,1.74233337649901
mp-555958,Ba2Li3(PO3)7,1.60409391246273,1.6059872135232,1.60175575853499,5.4555,14.3865336113374,12.3712309213575,280.631901492359,0.520338392426687,1.92538967240506
mp-3248,TbAsO4,1.87339271376826,1.92869364856112,1.89105402091003,3.6507,14.6989918047613,10.6878370190192,3.89735223522828,0.466914925273177,2.39830224118661
mp-15492,DyTa7O19,2.33775931181976,2.33775908938453,2.411646991166,3.2312,13.8818290835643,8.35853973613908,11.1701099118854,4.79621681725103,0.298022297349086
mp-16828,Li3B7O12,1.60452456509709,1.58068277968731,1.56281084907931,5.6468,15.4707706024543,13.5004192707095,34.9020667488925,0.750604977361265,1.36091028328025
mp-12670,Ho2SO2,2.266569628315,2.26656972537798,2.25385721597443,3.2774,14.37782159354,8.9700007135585,2.43515603383189,0.690792075838924,1.85826489825935
mp-545659,Ba2DyBiO6,2.21255784105184,2.21255938677361,2.21256021161007,1.7331,12.9700778445393,8.24311251762487,2.19220329794333,0.389486829427145,3.02364298454665
mp-13840,Ho3ScO6,2.03349410129462,2.03287280467815,2.03404400394878,4.4234,13.3431219457706,9.11685131470209,6.74765819783493,0.525113128827613,2.05255111202514
mp-6812,KBaPO4,1.6992736948473,1.67504945897129,1.68538581043036,4.9511,14.2529993001218,11.62194173961,6.05593661998817,0.467363862975689,2.30478773052397
mp-14511,NaAlGeO4,1.62852977866541,1.64471235783039,1.6519782565155,3.7388,14.0368911808975,11.7721151722861,56.1247607294474,0.44172973713942,2.28164511427879
mp-556051,Rb2GeO3,1.64465005700301,1.63819085884399,1.64225401202128,3.0147,12.6473744022891,10.6070757610873,84.5866928148609,0.442314489849661,2.27265701044823
mp-8056,Ca(BO2)2,1.73389108077757,1.71116062367038,1.63725843714424,6.0876,15.1699694313041,12.3132274029805,24.2934700869096,0.61048650253915,1.67920117796817
mp-19252,K2NiO2,1.65209278189816,1.65454183386217,1.78326492423308,0.7189,2.95795109457045,4.524512196469,7783.57681328737,29.9289600369662,0.033540929621579
mp-12669,Dy2SO2,2.27058160170473,2.27058169419204,2.25855654124487,3.3087,14.3836880768499,8.95975252348761,2.30435443785165,0.686443094372509,1.89074601429216
mp-27692,BaB4O7,1.62909555582231,1.66024311773909,1.67153182739665,5.169,14.6081998850034,12.1583427361006,60.7992703609995,0.660890480349018,1.52955757379025
mp-554805,Sr3Se3(ClO4)2,1.86077028942317,1.82837622222561,1.79565637859809,3.5451,12.4554417952035,9.37839972672174,219.564613040552,25.8560271484947,0.043230169946893
mp-648893,Na4V2O7,1.71549205186151,1.74469194702102,1.72004755457516,3.1073,10.0688711958686,8.01626777252947,211071.617954061,1821.53025726986,0.000553726687556
mp-11887,K2U3(TeO7)2,1.99665510542006,2.18416737453887,1.90767322935559,1.9354,7.82060359381201,5.35272304774276,6.83735370815052,285.725498945458,0.149755277045513
mp-28536,BaSe2O5,1.85655273827597,1.86257951239672,1.86369854053707,3.3774,12.0530164301553,8.92485323601633,8.59776921767542,16.3865350963644,0.177334953345321
mp-556378,BiSeClO3,1.95599006643694,2.17355193174674,2.08773569447859,3.5616,12.0620598760205,8.10597468783275,10.3556826775056,2.47422184098236,0.500732815596513
mp-541148,KUVO6,1.71884149356478,2.12009736568866,2.1046191056816,1.9808,8.44245994116943,5.90321868890239,9.27241123587096,2448.69371905171,0.108255193937989
mp-683974,Pr2(SeO3)3,1.94582749492343,1.94302009768299,1.9593840435198,3.6642,12.8623323155485,9.12549922720034,38.3547423275298,15.3409600286724,0.09125736395215
mp-5040,CaTe2O5,1.84229024314846,2.01725546969143,1.90223136605409,3.4394,12.0519920306409,8.66721158710399,6.33021729012029,1.35768363555417,0.894521074357284
mp-31112,Tb3GaO6,2.06566035204242,2.02903472124062,2.02818462177387,3.7491,15.8701757932608,10.8085351693086,7.36710656221594,0.446862454424334,2.37356356329916
mp-5611,BaUO4,2.08046893992677,2.22522537510249,2.24619980411361,2.1172,8.45200203197063,5.43071808932648,4.191017969658,73.9845237317325,0.252121855059718
mp-558289,UAg2(SeO4)2,2.01850838739897,2.1282305584687,2.16237821853625,1.5074,7.44319899816175,4.93893813820249,54.2660446203838,260.421518099933,0.022267658124371
mp-25039,BaMnP2O7,1.68779194215401,1.68915337077484,1.66850883126221,2.8049,14.8894502335281,10.4240710921464,23.4442595021763,15.8343856162581,0.105808062460107
mp-14368,SbAsO5,1.9118036562367,1.83998414123601,1.85876237319352,1.7705,12.2865004741788,9.05568671837948,45.6944357369768,0.445230168919857,2.26791379223356
mp-555467,Sr2AlCO3F5,1.55783104026079,1.47899058144398,1.56871806581042,5.4246,14.3420778287164,12.9551531269869,214.680978616233,0.819376831702821,1.22509775663241
mp-555483,SiO2,1.54072054247355,1.5219613628473,1.53949442675185,4.707,14.2595792206299,12.891539883236,3.33062341596108,0.49435807036291,2.32306936675123
mp-17741,Sm2ReO5,2.32150813050482,2.35457126883006,2.35457126883006,0.803,10.5477370969788,6.39251924759923,3.09751045441507,1.26449769898092,1.11366776386258
mp-555212,Ba2InBrO3,2.09416443480449,2.09416443480449,2.07249311217191,2.1646,14.009082593449,9.35761106128997,2213.47585664095,0.367435791239263,2.72201571894817
mp-560550,BaBi2(B2O5)2,2.03709287466232,2.04034107687906,1.98148872315741,3.402,14.8476804143507,10.2060516955765,5.16942222171017,2.95377777193211,0.531994720464635
mp-565233,Nd3BWO9,2.08176417732653,2.08176430942602,2.09214727254082,3.8424,14.6962141766644,9.82358218878217,10.2637814654374,3.85817874276427,0.356619628293651
mp-556282,Ba2AlInO5,1.97701485831544,1.97701479255973,1.95338320357271,2.0183,13.7627651617786,9.67610204450205,1128.5100606927,0.354013490012287,2.82563723733372
mp-27764,K4I2O9,1.60751140586933,1.6075114556357,1.71250801749948,1.9183,10.6939061685828,8.9640466941617,13.7206522770615,0.750736126657592,1.4049087792986
mp-21618,NdAl3(PbO4)2,1.96124696558083,1.96124696558083,1.96124696558083,3.1219,14.1022806063315,9.95068125976036,4.29732534601526,0.820828825951658,1.45098368518084
mp-680722,As2Pb14Cl4O17,2.33135090022931,2.32284736907099,2.30132224166891,2.1007,15.8323648628394,9.67989743085179,8.25945420508111,0.590948351275582,1.81326863725693
mp-25065,Sm2MoO6,2.18302225366578,2.16063580920062,2.19541131226019,2.2844,12.6738979787032,8.15691648064074,126.808777904284,32.634608471368,0.03852820586965
mp-7950,ThSeO,2.95971976376143,2.95971976376143,2.79641318835397,0.769,10.2144959213075,5.23214130926414,0.565654126406171,0.638595705660532,3.3338007585908
mp-19629,La4MnS6O,2.68781781562665,2.68781780260493,2.70241977679264,2.5947,18.9148275132967,5.21099649317651,2.99350973895878,71.5659861958156,0.348029155381341
mp-21767,Si2Pb3O7,2.02429192311781,2.02396000701595,2.02751528230985,2.6294,15.9265919917377,10.9208913704923,2.42466384151676,3.50034469840563,0.698114455519766
mp-9607,Li2UO4,2.19391430324888,2.28856446708411,1.94937742882183,2.0971,7.85602640201392,5.1275316915094,3.7462977186784,1207.47426104812,0.267758375188345
mp-5431,BaTeO3,2.04413180348039,1.94996371248288,1.86148984955599,2.7451,12.2760199346858,8.69963331360631,7.18855496373793,3.95739218769319,0.391801676255335
mp-23549,Bi3B5O12,1.93068466094285,2.01222953462074,2.05982420609138,3.4755,14.4496750941451,10.0147829693544,3.64409680528009,104.755733114108,0.283962437066721
mp-14493,Na5InO4,1.81452850349616,1.80256697517734,1.80080103842707,1.7211,11.9160108548789,9.07816271260677,50.3105080573238,0.330519285058085,3.04541862762169
mp-2136,Sb2O3,2.08962774914577,2.28180731219794,2.33417907839137,2.2239,12.5667702125764,7.91911722316168,1.51990568022921,0.619550438374188,2.27200915296813
mp-546011,YZnAsO,3.29464020797416,3.29464103811022,2.84599095746982,1.2129,15.519316224573,7.49110721682993,0.820808638876865,0.667425906816793,2.71660441704087
mp-556577,Na3Sb3(AsO7)2,1.9156408797058,1.88794354788484,1.89435847716318,1.64,13.2163219281409,9.60229423505035,48.3768969728455,0.358761522357452,2.80803794518205
mp-3884,Ho2Sn2O7,2.09204125915337,2.09204137148384,2.09204134280372,2.698,16.2738887070585,10.847505711039,1.8651953640243,0.336878735540376,3.50456406265157
mp-557753,K3PO4,1.54228416318135,1.54129772594395,1.54526896687923,4.0019,13.2025700153696,11.856572669777,20.7121256217317,0.540654738119577,1.89789013815641
mp-669388,Gd2Se2O,2.80171467141106,2.81663715803083,2.59149884429841,1.5083,16.7996194345344,4.55907233144179,1.54785332072861,338.281268417293,0.649012168400728
mp-616458,Cs2CO3,1.61763547191572,1.55419131061784,1.63848646927584,3.2179,11.4399206457312,9.84078599327368,33.0947470146,0.533398115149228,1.90498855478837
mp-17913,Tb2SiSeO4,2.26595902434267,2.29920350991381,2.27312120662318,2.584,14.69517208405,9.11108376146724,18.6825404941732,0.849767073464004,1.23031897728719
mp-30250,YAgO2,2.22948255880148,2.22948311274161,2.19142162990147,2.6204,12.767420396249,8.10132582167105,5.48552709958201,0.720441320485971,1.57033598483257
mp-18136,UTl4C3O11,1.90576321456785,1.92403716440198,1.93106410043789,1.8011,10.1690080822245,7.3141199509383,2.60127590305458,6294.78074758887,0.38458559590499
mp-7958,KLaO2,1.96825677694756,1.97781649300434,1.79748791651015,3.8889,10.8961711271119,7.85875501610659,5.88622636816295,0.944877825888258,1.22822601679918
mp-29454,Na3TlO2,2.21249294236162,2.26892822275188,2.20892924965921,2.2122,13.0669449824288,8.24997317205305,14.2097012760857,0.821701901740238,1.28736080840165
mp-555207,BN(OF2)2,1.40936099350025,1.36429244299014,1.41212686044845,2.9984,7.90481783871631,8.0503231657939,59.7361487413304,829.461314561146,0.017945884144798
mp-28883,GeP2O7,1.70561853003537,1.66910342699307,1.68304779492443,3.8384,15.6722153202103,12.7842135169783,46.6869988401417,0.582494659304683,1.73817317690562
mp-20820,Pb(NO3)2,1.78072211476131,1.78072211476131,1.78072211476131,3.6718,12.7434979997696,9.84171152467324,14.3058951831875,10.1580721301118,0.16834512977026
mp-562263,Cs2PbO2,1.95314532997419,1.92538980728579,1.96283310803542,1.8593,10.9037650813125,7.74417197260296,15.2674287223282,1.11402428793258,0.963145411269144
mp-17128,TbCs(PO3)4,1.60406296946223,1.601946375507,1.59888128389821,5.3691,14.0631520090492,12.1122344976499,48.3560768875088,0.54055176253348,1.87064151763049
mp-566406,MnVBiO5,2.15769650785276,2.25966224688558,2.2904127924896,2.1321,21.0832407320067,7.44328752285867,6.11840410240916,4.25295755393271,0.398571804509721
mp-29185,Te2O3F2,1.94136767769529,2.03757105888359,1.96430419232867,3.399,12.8982289601063,9.01925237390806,4.10361901640464,1.21798690397755,1.06471422953217
mp-2879,SrSnO3,2.12266576031178,2.13060319628034,2.12383498417368,1.8057,16.8012767988792,11.0463484194672,2.38162605944007,0.421853467626067,2.79037255627056
mp-18928,Mn2SiO4,1.86634266146386,1.85555833106912,1.82398551803461,1.0198,17.6408311884523,9.45512855985791,3.47217011246414,0.955548869808959,1.33452327235485
mp-27716,KTlO,2.32310444448802,2.13152444274045,2.2341363118664,1.6136,13.8052034377813,8.71780531844643,2.32216401859635,0.442057274484758,2.6927831116861
mp-557465,SiO2,1.5441791282102,1.53107507327368,1.53619949550831,5.522,14.6430444339818,13.2073920517165,19.3074268081138,0.522249126792618,1.96658850884923
mp-542477,Ho2MoO6,2.19074784719739,2.16200550646847,2.19469423382848,2.1611,12.2053555790405,7.84687707486545,121.167851192934,38.9462016370816,0.033929459118821
mp-18483,Rb6Si2O7,1.63365953613352,1.63874953241793,1.63467106782986,3.1374,12.1089583365871,10.1951259110643,11.9330502485255,0.428995498836804,2.41482765927445
mp-22694,LiPPbO4,1.86958371034838,1.84516188720665,1.88955029835144,3.7786,15.635551496895,11.5360948868368,24.0285046559791,19.139562565983,0.093865036187693
mp-560851,CsIOF4,1.49914410581505,1.4763911575189,1.50025747123619,4.9578,11.1261893334493,10.3960033109858,39.3805451620102,24.4191149155017,0.066344774485151
mp-559254,Rb2U3(IO5)4,2.124815648474,1.89226737011449,1.9036620603458,1.8961,8.50659179164167,5.96858662810519,261.066100322633,1349.90511793521,0.004571240339155
mp-28171,K3IO,1.80238949730628,1.80238949730628,1.80238949730628,1.0264,9.06316965087482,6.91791994701403,2.31848737199817,0.339282872393506,3.37870880708527
mp-555816,KDy(SeO4)2,1.77133648412717,1.75710607534093,1.72507284773716,3.4724,12.8677931066614,10.1022568596528,107.355869886484,0.597212369356751,1.6837610437402
mp-17149,Sr3ErRhO6,2.21863494969317,2.22397508754033,2.21385413927838,2.217,12.7952795711205,8.11280051158697,5.61281492384246,7.01436269560511,0.320728349213351
mp-11773,Nd3GaO6,2.08776209612111,2.0579088609557,2.0563766216333,3.8062,15.3201179295596,10.3174457293627,6.69259414085617,0.478421668532877,2.23962522187974
mp-558455,Na4Li5(BO3)3,1.58343007739527,1.58303924777625,1.610354113231,3.8477,13.3757361391292,11.5944377066086,24.0311341637999,0.596343875633187,1.71849751682195
mp-555979,Li2Pr(NO3)5,1.55842958134142,1.60111211974677,1.58871565737863,3.6557,11.1627467939407,9.74051926004932,42.6521562769407,37.3667424048325,0.050207239067387
mp-22325,P2Pb2O7,1.93103018101738,1.9162123916727,1.93392142291252,3.7451,16.3334643807898,11.7102522625172,12.4780712649124,1.15390973169843,0.946759505808923
mp-13772,Li3Pr2(BO3)3,1.78727858768576,1.89111409491865,1.87687083732472,4.7269,14.7266145565333,10.9553786972667,10.9697799820144,4.01562712721446,0.340186636587782
mp-556346,Pr(IO3)3,1.99475273906317,2.11542946939859,2.05821175295449,3.3438,12.3490719122841,8.35611371885643,7.22065226115801,4.10045430019241,0.382367060094777
mp-19283,WO3,2.56487338089037,2.52683257458819,2.46887638410675,1.3707,13.3329244404898,7.62260704036507,35.9329308057389,10.0988713850313,0.126850591287415
mp-19342,WO3,2.6128861398844,2.52486566573353,2.49785533007819,1.3331,13.4080559543638,7.60601212994516,9.3012725572717,5.55410043951166,0.287559328499235
mp-19443,WO3,2.40706555997131,2.57932833699008,2.57932833699008,0.5517,2.735126317779,1.5628669224649,413.791689160772,267.293975399944,0.006157874100596
mp-2858,ZrO2,2.34580663312218,2.34128030573018,2.27051830206233,3.5331,14.0351439954731,8.57897199203624,7.06113799319959,3.44545865032625,0.431857353122975
mp-1840,TiO2,2.63064847708697,2.61113276184877,2.79004354446306,2.3003,11.1148619075992,6.0607627820182,1.79734813068025,3.22998260373242,0.865974432023498
mp-604,Nb2O5,2.51111069051127,2.42159283324014,2.62945922767401,2.5508,12.2711276632984,7.01440386835908,4.83037229274811,2.20785120217055,0.659952454028944
mp-559175,WO3,2.50117167943346,2.50117174540254,2.61741018757091,1.9016,13.6359774546855,7.74799549374743,2.66694854167324,0.393832988148037,2.914107745482
mp-715469,WO3,2.66775276215769,2.66775276215769,2.70155363078359,2.1831,14.9689805746374,8.15823580777689,2.01874385824653,0.257104493821882,4.38482670569228
mp-867818,SiH9C3Cl,1.5393716477836,1.51047624277908,1.50297463052441,5.7642,13.2972078662988,12.1739335647932,7.25970617854628,0.572487437335574,1.88450984257432
mp-772900,Sm2TeO6,2.02477722231361,2.01331701428265,2.03179711093406,3.0853,14.1944777307919,9.74148630969064,15.1652486539084,0.599444224450161,1.73415215003304
mp-772261,LaAsO4,1.86272727472381,1.86272727472381,1.98103926513333,3.8453,10.9088243739718,7.91483759820509,3.16117383602722,0.624028852159103,1.91882819451188
mp-768313,Dy2TeO6,2.01517591291679,2.0060665891241,2.02255765554409,3.0378,14.0051354808409,9.64818865415251,16.3754975800315,0.567367561979652,1.82359270647682
mp-558235,CaTaF7,1.51242904957555,1.51504990016831,1.50644507699418,5.0653,11.8003084001051,10.856733200271,1557.92113208563,2539.17726079172,0.001035709370125
mp-780362,La(ClO4)3,1.54094142977597,1.54094153360859,1.54280504601197,4.4944,9.75075591160975,8.76573701681715,28.3164945354168,106.222028333269,0.044729348911131
mp-771158,Ba2B2O5,1.7241273212846,1.75174640287914,1.67472100661573,4.0398,12.7157532819172,10.1821690646853,15.8441778129843,0.52937737166035,1.95212627443716
mp-753821,Pr3GaO6,2.06582334675548,2.05539455093177,2.0913630961648,3.7963,15.234446528501,10.2446167401787,6.05154885344144,0.493137260549265,2.19307993028484
mp-770124,GdTa7O19,2.35158096607368,2.3515372780375,2.43192195187263,2.7092,17.7159920189404,7.39168585043744,12.9047131926329,372.018211990445,0.080179107861142
mp-8836,CaAlF5,1.41398562934706,1.4135362075306,1.41852113131952,7.1511,13.2985949815207,13.2844003291947,13.5707477987342,0.580059039961811,1.79765035053436
mp-752520,GdIO,2.77617458925047,2.47609466297232,2.61266994279798,0.3696,13.6347232493814,7.55716535370486,0.395347425676241,1.47951512771809,3.20531790627756
mp-27694,H3ClO5,1.50918628737476,1.41786252154431,1.48898049685011,5.4924,13.0937402283791,12.4374113260483,31.838348640535,0.674147777783367,1.51476295673221
mp-23866,H2SeO4,1.65110628064943,1.58981963442398,1.53700286271692,3.4441,11.7542101395003,10.1862620986763,20.0622403164358,0.794066997599452,1.30918446288484
mp-760400,Na5BiO5,1.95084617794433,2.12179644641045,1.9663071047016,0.9266,9.3712462069909,6.46047359157591,13.1748866842596,0.418013558077831,2.46816888410445
mp-504801,ErHO2,1.95127916249828,1.93478059996476,1.88487395334542,4.0336,14.8963512114164,10.6971992269553,7.71659161240096,0.431458667083185,2.44731000819129
mp-634326,GaHO2,1.9255779833598,1.93831935965155,1.94092372596143,3.3254,20.426304262547,14.5902276411583,4.37403124716458,0.282485409290046,3.76862789712452
mp-558430,BaB2F8,1.41610031424331,1.42456352262719,1.42380523949029,8.0732,14.3752659832747,14.277736463309,45.4333939159089,0.987538136056166,1.03462936383252
mp-769345,Ho3ReO8,2.40082915260541,2.44289680911822,2.47145328096648,1.7752,11.2500071496051,6.60300706483477,13.2920178995493,8.53652419197537,0.192376818283579
mp-770409,Tm2GeO5,1.91382251528192,1.90572016571164,1.93287942458913,3.9474,14.6599187421039,10.5583965488247,31.626037431501,0.430126195075788,2.35651860723132
mp-772186,Tm(ClO4)3,1.57303227557479,1.5730322120033,1.57044338006819,5.7725,12.701499032006,11.166411168822,18.5982190440855,3.70592499380423,0.323606754231665
mp-752686,Sm3TaO7,2.17594160077884,2.17763281799297,2.13945690304806,3.6989,14.314316612492,9.26792102124611,2.62044262395394,2.36985797631789,0.80358113397091
mp-754969,TmBrO,2.07331056766708,2.07331056766708,1.88235992838777,4.3758,12.6481585545003,8.73232124497395,2.02154237857655,0.583120861169753,2.20958214623755
mp-27714,H3OF,1.4265865168296,1.33626857330403,1.39950646658027,6.7352,14.9307559694472,15.3236941209981,8.45797620650306,0.589212597978239,1.81541186952477
mp-754897,BaTl2O4,2.61608633076204,2.6673320228273,2.71317161270716,0.3616,1.5612513382935,0.854233133158163,2.49327446768654,0.186231998942054,5.77072548085808
mp-756970,Al2(SeO4)3,1.716894484236,1.72775141151729,1.73014128035834,3.0595,12.5578855321706,10.0084375518734,13.1553258298458,0.654811894119766,1.60317097380298
mp-770932,LiSbO3,1.93135334416051,1.93637305031856,1.69606015223517,2.7217,13.732021844362,10.2007653147323,16.5067130332186,0.474080168790258,2.16992929516313
mp-769014,Ho2(SeO3)3,1.86714682068658,1.82391162888995,1.95655335475422,3.9528,12.4995450197536,9.15640253148212,4.48887519521426,2.36580609518169,0.645461866963065
mp-13775,Gd2Si2O7,1.84999101349169,1.86478814614422,1.85316590730566,3.3254,15.9643509904886,7.34523148945057,8.53611203396396,783.313031581504,0.118425981606966
mp-3042,K2SiF6,1.36310390286287,1.36310395054816,1.36310393220767,7.2224,14.1381204583938,14.878315172548,12.0490282124693,0.600450604636525,1.7484101714797
mp-625521,H3BrO,1.66969581660852,1.66547309795145,1.53441074683411,4.4259,14.6921827821272,12.4719776008871,4.21243743187988,0.409220844211198,2.68106053853397