MP_id,Formula,Ref_index (1),Ref_index (2),Ref_index (3),GGA direct band gap (eV),Effective_frequency (eV),Average_optical_gap (eV),effective_mass_valence,effective_mass_conduction,effective_mass_transition
mp-31043,H5NF2,1.39007157729377,1.40788423174635,1.41095457403844,6.9227,14.8992811578902,15.0599977617321,21.1044393066659,0.578952187152799,1.77464174660747
mp-557163,TaPbF7,1.70391836072037,1.73861915611211,1.6953946413741,5.2758,13.9060293423726,11.1630100638989,3.37844758150791,10.6422663170596,0.389958884720881
mp-756510,K4TiO4,1.67529001966824,1.66613398620879,1.66809577362932,3.2159,11.1849499488292,9.2147161200317,14.8805880593211,0.620414835897467,1.67902641497637
mp-30103,AuF5,1.73356183333621,1.76403019815422,2.06121260669539,0.7893,3.34967460058238,2.49038624575013,59.9326676202077,129.371917987567,0.024415043855478
mp-625394,La(HO)3,1.81628324883538,1.81623419470067,1.89313664852805,3.7165,10.7237963679976,8.01792892831588,1.72292111278123,0.611692758965493,2.21521727380325
mp-7622,KSO4,1.4735207022638,1.47739205697066,1.55941617600947,3.5343,12.0853102331023,11.1882408283943,113.084861554126,60.17868357699,0.02546009631972
mp-761686,Na2BiO3,2.29392016643997,2.29771990677715,1.90673672278057,1.2662,10.3656870628288,6.70666999850609,10.9836728148596,6.48436170123602,0.245261410657355
mp-28391,SiCl4,1.45108271301122,1.45570415950495,1.45225156567311,5.5892,10.0878433991473,9.73931093042112,42.7204009791722,0.874529904204152,1.16687949556859
mp-769819,La6WO12,2.16270052943074,2.16270077449471,2.10188992099967,3.5029,11.0658964882953,7.2269457693402,6.38479992312731,12.8933423937645,0.234181386833241
mp-867300,Rb2Hf2O5,1.82984004218948,2.01235080440762,2.01235080440762,1.9903,12.7457839031578,9.03399607820626,318.770928995582,0.770658227094846,1.30072911352853
mp-777555,MnV2O6,2.09502855827791,2.0947341860007,2.18911610244866,2.0105,21.9968368205172,7.15904838368992,8.79452405102676,3.46753207354295,0.402096665692731
mp-698317,NdH4C3O8,1.67445403639515,1.68725873534559,1.55337841493952,3.2944,12.7095667544105,10.6822594757442,7.53692502645676,65.1266184596199,0.148034809267793
mp-29978,Sr5Al2F16,1.46739143380354,1.46207122261537,1.46009869186983,6.9355,13.859979714569,13.2641055657626,57.0262673072225,0.574341866349854,1.75865906876979
mp-31373,H18SO12,1.4298000489579,1.42914597225056,1.4071565549007,5.274,14.0427647461864,13.9404454436026,739.340135142014,0.581915422215607,1.71981534743135
mp-768908,Ho2TeO2,2.59862453617293,2.59865867516302,2.54183871046139,0.713200000000001,10.5908086087341,5.94457856727196,1.18513958589399,0.40175562315128,3.33285776845135
mp-541106,Nb2Se9,3.01744224799747,2.69707216811119,2.61482549513347,0.8051,8.20245396245644,4.34909233979794,7.65848231312478,2.67523863204452,0.504372603522438
mp-770773,Rb2S2O7,1.50916399042649,1.47232220658387,1.48918771818733,4.9958,13.1133698758807,12.2697700676656,223.296243004936,0.622890820774178,1.60989613782389
mp-768536,Cs3LaO3,1.86149829975748,1.86336869942585,1.85234266808277,1.836,8.95016385564202,6.63355849865864,12.1345683206608,0.486802651776728,2.13662972167599
mp-706291,Ca2B8H2O15,1.66748542422415,1.63672174788508,1.60071894472453,5.6708,14.9387277845063,12.5835293466484,26.3532088294309,0.643218675055396,1.5926272717834
mp-626378,As3HO6,1.88495125666421,1.86481331505328,1.71186603155738,3.5898,12.5438942956505,9.48318538600153,12.5881005491176,2.3156943892832,0.511276015310346
mp-12309,Cs2NaAl3F12,1.43045120154446,1.43100327393057,1.42796585393349,6.9448,13.8017781845622,13.6035850934496,15.9589443644055,0.504346894052654,2.04542307098261
mp-754370,Ba3GeO5,1.98291850311605,1.98291850311605,1.98140983393139,2.7573,13.5004580538978,9.43468410839824,38.2851639780868,0.416045216163807,2.42970468013311
mp-753173,HoIO,2.21572303323317,2.21572303323317,1.98016521280422,3.6631,12.0292122999039,7.87245496908514,2.34799204190357,2.23428305279378,0.873466687315946
mp-555272,Na5Zr2F13,1.44866348404314,1.44163412140529,1.45203701743447,6.1048,12.201672805912,11.8377334381594,43.6474308140529,24.4114385793155,0.063875258632316
mp-643727,HPbBrO,2.19419131116683,2.26590841385966,2.24722597884592,3.1451,15.4286252241388,9.72048538526725,1.60938372793011,0.994098227862417,1.62729266341287
mp-757365,LaTa3O9,2.31722630962105,2.31698444535133,2.3075495530974,2.4416,11.8526417121135,7.25846565546011,2.96204766515086,23.0331012303867,0.381020067938228
mp-29862,SnBr2,2.36503051565936,1.9987344996272,2.15729024704605,2.5694,11.7132102478225,7.55621197749151,3.09520695887651,1.23463903355512,1.13303350585582
mp-669496,PtI4,3.79152392713009,3.17683657905156,3.72819288261753,0.7608,7.21112363132754,3.1752743187343,2.53590920876824,4.88396917491849,0.599087381191646
mp-865973,PHPb2F10,1.62722585709544,1.58533088344358,1.59642831032277,5.4991,15.524267918472,13.3582256655777,5.57676529710931,1.39892634803375,0.894149334253339
mp-755652,Dy3TaO7,2.15253341437479,2.16115421013865,2.11148090685187,3.5505,14.0643669354094,9.18778170992494,2.34552204134061,2.58242021872788,0.813577967340491
mp-32780,AuCl,2.12696365507265,2.15195008771114,2.13382592307808,1.8679,11.6206188212564,7.60391096500463,1.48272269266688,1.8562867479975,1.21314482049983
mp-695906,RbSmH8(SO6)2,1.54919855409176,1.58270366777865,1.57301808317641,5.1941,14.2327049022309,12.5471243840396,702.549754856454,0.527801767621065,1.8960741085504
mp-24574,NdH5(SeO4)2,1.75760755858639,1.75083891035126,1.69627593863734,4.5149,12.9142688450679,10.2331983063151,14.6306856353706,4.51880799987933,0.289646794607901
mp-29001,NaLuCl4,1.6164752890162,1.66881902553872,1.651800926262,5.2263,10.8554887478077,9.08084011971039,10.5006677165734,8.84411260277545,0.208301608216331
mp-676653,Lu4Hf3O12,2.0770372047703,2.07774244794681,2.08289866052096,4.6081,14.1836250749871,9.50464503823634,6.92821093125788,1.37996530677662,0.868993305881452
mp-32850,Tm2Se3,3.10051145780821,3.09956256752465,3.10145409606526,1.6934,11.4986318623445,5.60951558436712,3.2942963558162,0.694182067665553,1.74409923057613
mp-867730,Cs2SnO3,1.84273696440919,1.86065571506391,1.92524518698269,2.386,12.9650477248306,9.52717089411158,11.3223500733201,0.417203244862162,2.48523417150428
mp-2892,BaNd2O4,2.15047479176111,2.10070338220321,2.12007155539619,3.0973,13.4864736700496,8.8739388840472,5.71953994644453,0.82573777809865,1.38587744609076
mp-554542,Mg3B(OF)3,1.5409711905159,1.54097111913235,1.51313134261372,5.4383,15.672745627835,14.19455159506,57.4008852674123,0.513155672286694,1.96614772261469
mp-559756,PrScO3,2.24456754186636,2.22990131844438,2.18506612485755,4.2587,14.0454146559629,8.90200896456421,2.55657440547075,2.12145804234609,0.862522327669913
mp-4769,SiP2O7,1.63462286476117,1.64162809430151,1.63522576422951,6.0119,15.9903500161733,13.4502374222356,17.2883666474524,0.568940729461835,1.81549469635844
mp-8300,Ba4As2O,3.26792008929227,3.26363437903206,2.97425615406609,0.6694,7.52961472634589,3.61450782831704,1.02030687239684,0.422358739785561,3.34775280544517
mp-15511,CaTe3O8,2.08488115968273,2.33077133799092,2.3296808772877,2.151,13.8175166504822,8.66459842463182,1.73611329499658,0.67451041280375,2.05855607666619
mp-556882,SiO2,1.5550938910561,1.56219295863219,1.56267981365346,5.6592,14.8720317512491,13.1895852992693,7.25921446418467,0.506466368757104,2.11222071755566
mp-768638,Dy3Sb5O12,2.22640588842196,2.22640588842196,2.22640588842196,3.1674,13.5511793088636,8.56760329127916,5.58453465493153,2.9732320902101,0.515400271676181
mp-554155,KSb(PO4)2,1.67554466666813,1.6767320268904,1.65285280651364,3.0827,13.5017242633926,11.1335366073937,4.57847006418686,1.2853754838339,0.996396357802468
mp-568846,TaBr5,1.85291230229604,1.82766933278424,1.89741662794443,2.0283,6.81892190046561,5.0532838599155,8.97455115813331,20.9488139141602,0.159161584703811
mp-4752,Na5Al3F14,1.37539171874779,1.37539171874779,1.36775910159648,6.5772,13.6537233277643,14.2227662150369,30.0363964232633,0.563998702115759,1.80634666743124
mp-560872,Mg10Ge3(H2O9)2,1.78890491362733,1.78919922311631,1.78747103193311,3.907,16.6865267348773,12.8322437018322,7.86786584041589,0.40101139654271,2.62079398386116
mp-20402,Lu6UO12,2.10839424444291,2.09982647854531,2.11341954187994,1.9596,9.80140586545183,6.49263364495847,4.31597315510239,114.79865302563,0.24040835955404
mp-558516,TmSeClO3,1.84208132285195,1.78964027111596,1.9017028185287,4.4001,12.4253834667103,9.27783984461906,4.4193152104416,8.75534709506773,0.340495318635071
mp-696949,Li3TeHO4,1.66276316112668,1.73602282243063,1.73015551902134,3.8726,11.6831882327568,9.39527799258237,4.28749160307671,1.89206728994634,0.761759037434995
mp-27539,La2ReO5,2.32145811291093,2.32112337242121,2.32119920515237,1.0297,9.51976309862251,5.81472327947583,10.3570367968433,4.76468709893535,0.306430083455324
mp-230,SbO2,2.22655922445373,2.34968320417881,2.38499950524104,1.8914,13.8168940189473,8.44195392547979,6.54526242948482,1.06760657997091,1.08945689370898
mp-566586,Pr2Te4MoO14,2.10961583943618,1.99718453078327,2.05957462112932,3.3951,12.5123368001279,8.46900924327647,8.96518218417441,3.83034261504216,0.372615881356809
mp-18732,TiNiO3,2.4453535061418,2.46821625875854,2.32939553747319,2.9234,12.524231826913,7.83817863526551,0.082597595746555,0.08202075600702,24.298925806011
mp-19472,Rb2MnV2O7,1.78774193327784,1.78774193327784,1.62831555295649,2.5703,15.8431995722963,8.08401057208853,11.6924853301169,12.8199476223356,0.163528455250239
mp-15558,Li3GaF6,1.43154089358286,1.43720666572348,1.43728129118833,6.2874,15.419415443436,15.1218187520023,100.144015275006,0.787316338415008,1.28012311183712
mp-23288,AlBr3,1.58185856510625,1.60925644009897,1.53647293500406,4.0967,9.2933147838135,8.14873343274856,10.8094041337921,0.574458672621592,1.833281300162
mp-552098,Bi2SeO2,3.65278003854598,3.64569922511444,3.29392308653375,1.2937,14.276439894246,6.33104808695399,10.0860719241746,0.236235797670108,4.33220533192887
mp-697657,CaP4(HO6)2,1.53374180356408,1.55918303928692,1.56360807749257,5.6378,14.1083878718373,12.5838679494998,12.5563912865868,0.57764540556425,1.81080656742919
mp-4648,KTeF5,1.43304581922561,1.43115114505771,1.46443210153288,5.2124,12.0734662941103,11.7608121679237,5.19816848202514,2.15357862264094,0.656718840629775
mp-30325,In2(Se2O5)3,1.82227867791949,1.88975686002194,1.91655660234703,3.4716,12.6934248760528,9.32764348004239,55.0820995135958,14.3188700044331,0.087992631464901
mp-566874,KMo2P3O13,1.69538538981554,1.74706701359736,1.72105839819571,2.7049,16.0011436232207,9.62802869759372,8.29905841153046,28.7742162392155,0.155248933083668
mp-4555,Ca(AsO3)2,1.97118298998343,1.97118315993213,1.75910939114087,3.6173,14.6890734812558,10.6662213470151,6.9461940622293,0.507385851423183,2.11485037715443
mp-10418,RbSbO2,2.02291910861507,1.75876391536784,1.79644036082471,2.2682,11.7095765815395,8.67740828486727,10.7984614464892,1.38176472426902,0.816317993423401
mp-707536,KHSeO4,1.58864316320563,1.52683700177851,1.5380568194966,3.5239,11.8201685863199,10.5506481736656,262.976883921695,0.699730232367836,1.43292480260737
mp-13753,SmP5O14,1.64220410424527,1.62744700374544,1.66038583467819,5.379,14.7077835799165,12.321997691539,37.3180668746992,0.584435714872325,1.73784884521333
mp-4112,Tl2SO4,1.889247958845,1.8597345966562,1.85165204074632,3.8464,14.728674753843,10.87363033144,10.1240620334897,0.72819308318416,1.47203673377846
mp-22874,PBr5,2.13886555678472,2.4275255508439,2.21836151697599,1.7023,9.49826761771816,5.9273802476982,6.4318371258357,1.05823930945023,1.10044241578064
mp-559109,ErGeBiO5,2.12688509092522,2.10616003902837,2.0943741666665,3.4445,14.5491303814191,9.63004231170341,4.80497147431869,0.513096384344992,2.1570693433257
mp-23096,LuSeClO3,1.84285101948041,1.79221277196654,1.89841228135513,4.3892,12.5393274395386,9.36283749596634,4.24171555633858,10.9532976500317,0.327050374190078
mp-10474,NaPF6,1.29047856626912,1.29047850040208,1.29047837641706,7.0089,12.7929237111495,14.6540077343726,10.686898149732,0.685135318744204,1.55313820465815
mp-8298,Sr4P2O,2.79371437516436,2.7913809664752,2.64563737689049,1.2902,10.6278472708828,5.68681719212693,1.23899034275554,0.474095591282546,2.91638805726
mp-6434,RbAlSiO4,1.57082389528553,1.56619487293248,1.52473012366123,4.3806,13.7040838074565,12.2076781757304,10.6494163981559,0.469036581991468,2.22593172303315
mp-29364,Li5SbO5,1.8318470596641,1.79626261999742,1.78697553424774,3.1604,13.8849837593803,10.5834977109782,3.38803473495203,0.571809230300308,2.04399136829109
mp-625821,Sr(H2O3)2,1.66079833513886,1.68400728323841,1.6921090538142,2.9347,12.235685878315,10.0235545331299,7.56082027036823,17.2041864966555,0.19038616890713
mp-31097,KAlH4,1.63504175787654,1.6215829149322,1.62323794004453,5.0768,11.9392872160946,10.1121689646197,2.52464819182872,0.870091104504574,1.54539972648289
mp-13774,NaNdSiO4,1.82146309048523,1.8493151921725,1.82495118564854,4.4775,14.8496849143831,11.1600296395109,83.4935370954636,0.503752279901466,1.99707965315892
mp-13815,Rb2NaErF6,1.44074162152691,1.44074174299213,1.44074180545995,6.4984,12.626040721232,12.3224913537447,6.4811232065763,0.519935478441646,2.07760981108081
mp-778814,Tm2WO6,2.16500137413351,2.16057552517842,2.18643900669559,3.6521,13.9341449072829,8.99949510585147,5.97892299550989,6.35957414121242,0.324497436172013
mp-16163,Pr3ReO8,2.46997665373582,2.39937572089075,2.38526454926912,1.8653,11.20714358782,6.62189776112386,10.9105601415582,5.86622547737634,0.262121687759281
mp-19674,Sc2Mn2O7,2.89672001063272,2.8967198535585,2.89672009866331,1.1393,18.1635269595664,6.88594594896016,0.001117573447923,0.001117582799965,1789.58406323906
mp-6175,BaLi2P2O7,1.64002035353224,1.63846432979177,1.65442879870969,5.4822,14.5479683561689,12.1805848060794,50.0195330782301,0.534780530923766,1.88991815416381
mp-554543,SiO2,1.40384087061177,1.41042077055041,1.40547202746978,5.4796,12.7452507814266,12.8380922515384,5.60386452788612,0.614366784060816,1.8061404460482
mp-3211,Nd2SO2,2.29416072889412,2.29416070274076,2.29000011790393,3.4735,14.1169461886957,8.71055722731981,1.78673613408254,0.691770838363007,2.00524514800375
mp-552857,TbBi2IO4,2.61698572407264,2.61698704620409,2.40852204681626,1.7673,13.1572628086765,7.4584416149599,15.1037796950937,0.305210725271262,3.34263342721515
mp-4582,NdRhO3,3.51166752554965,3.67484687980329,3.33036656090587,0.6486,8.30267275335839,3.70107060146295,2.6558568492692,42.8003107078258,0.399890634145079
mp-540586,Tl2SnO3,2.79244799772529,2.51069463694811,2.583486214401,1.4905,17.4086627320362,9.62820490242709,2.11257439339343,0.343272153629878,3.38649657281499
mp-24589,K2HBrO,1.58119719200358,1.55197224201981,1.56645124405453,3.5292,11.8390000481122,10.450139309539,33.6851749005003,0.439901320961739,2.30292374291645
mp-12231,SnTe3O8,2.13883501233732,2.13883492116619,2.13883501233732,2.9251,13.6672084905152,8.93861142998788,12.5619902626021,0.628021991219547,1.67190614903831
mp-560026,Mg5B3O9F,1.6868920297399,1.64851189258677,1.77612763617934,5.4247,16.5616861932436,13.364475166455,9.65994228891434,0.464427438429793,2.25670917581718
mp-558351,SiO2,1.39553896756773,1.38286818966957,1.3874978558542,5.5183,12.4509999344201,12.7636140008388,459.542414967475,0.650634181490118,1.53913805794479
mp-28124,H8NF5,1.33780801313193,1.33715177896901,1.33215633466947,7.4305,13.977174917895,15.1574896927314,40.0752829681454,0.638842677399711,1.59028364980812
mp-740696,TeH18(Br3O4)2,1.92372207971942,1.84168181833888,1.94552872248137,1.9245,13.0385632788518,9.45328568769891,1.22539145513869,0.497533325157402,2.82598136911933
mp-4511,La2SO2,2.28003624751889,2.2800362804131,2.30251324209004,3.1853,11.0506902598026,6.83146634199771,2.31106623580731,1.42001856267046,1.13691685591372
mp-504354,LiBi(PO3)4,1.73150948308116,1.73514819540004,1.73402669241278,5.171,14.8255140399474,11.7567688117646,22.2132867408751,2.22636390577275,0.494180970918071
mp-23489,CsIO4,1.59857672634128,1.60721951829861,1.59793508316202,2.5447,9.46149383533104,8.15109262327446,41.1859861533898,0.832351527104704,1.2256955719692
mp-6017,Na3In(PO4)2,1.68433740087905,1.62865075138901,1.6828364804698,3.2621,15.0398689915018,12.4259521460962,3.20678745876024,0.570881930716565,2.06351425536852
mp-570738,GaI2,1.94446588038978,2.12255384384001,1.93242822117666,2.4616,10.4215388950207,7.22648253422615,12.7670712469435,2.53772479114358,0.472380261185044
mp-27674,K5As3O10,1.61983060842793,1.62661138567268,1.60023532019513,3.057,12.3567417519407,10.5428785678787,181.039894700448,0.580783226871746,1.72733645463651
mp-8416,BaCaGaF7,1.52196175379015,1.51901274188204,1.53391933621035,5.8537,14.4154603101099,13.1230084079263,125.807471654214,0.567901564387755,1.76881719605909
mp-20845,Dy2Sn2O7,2.09533321932336,2.09533328375225,2.09533325034468,2.714,16.2874965797064,10.8418428809352,1.90150259458035,0.338510514842154,3.4800178721797
mp-677335,GaPO4,1.55110072529156,1.55032765246576,1.54955427784896,4.8812,15.3972036100935,13.7521134535945,16.1380565028294,0.590691087584359,1.75489759381362
mp-19407,MnWO4,2.22104951318065,2.32679879018363,2.19718378384695,2.4031,21.5929733396336,8.80715772984084,2.08973226103844,3.20621185573776,0.790424750289182
mp-505727,NClO,1.63366868734147,1.76388911216097,1.72204072832207,2.0443,5.90989673755726,4.76136352473978,39.5248633806527,36.4043972736673,0.052769739285896
mp-25140,GdVO4,3.05610201564018,2.80228272128278,2.98180376785596,2.9685,17.3680855122645,7.0000496868044,5.56616663434589,1.23393596521391,0.990071682008534
mp-3384,Er3Al5O12,1.89741278587449,1.89741290709218,1.89741277796899,4.758,15.2544735945332,11.0933575033976,3.41187172320803,1.06685818784432,1.23042595580345
mp-25,N2,1.23861514604013,1.23861514604013,1.23861514604013,7.3478,8.48069499333383,10.4521498927901,12.9588906899483,2.6232556696058,0.458372793673307
mp-4747,Ca2SnO4,2.02085465583253,1.97153618531337,1.9634688054563,2.7299,15.5127629227554,10.8269541098499,3.1946068644107,0.381326399568932,2.93545286832964
mp-5618,Mg2As2O7,1.7900672696857,1.80473626051011,1.79185744968734,3.0413,14.3717402848338,11.0102434888271,3.53111113065987,0.420973767256894,2.65864190506711
mp-566537,Sm3BWO9,2.07749167266682,2.07749154510915,2.09144588502787,3.8686,14.6828471698356,9.82723011924567,7.83190158583209,3.51752899918224,0.411973389717149
mp-29095,H4SO5,1.48988473715251,1.46723976909025,1.50124064693173,5.6476,14.616033810198,13.7216730973276,38.3009163040242,0.570974284897044,1.77750139536227
mp-9824,Ho2Se3,2.66675137761284,2.66368454025622,2.68877575115516,0.8479,9.92569455286485,5.41892404830241,0.772275330696471,0.439605952694081,3.56963944108577
mp-17375,K2Na3TlO4,1.89389152012464,1.89707403650991,1.88515804377246,1.3295,11.4908038096168,8.37826218290776,7.74454322353711,0.400787182634689,2.62421294536492
mp-707023,H6CN3Cl,1.58000622467128,1.64684866942898,1.52250908371674,5.107,13.6044742030956,11.8680814514862,10.9737045001405,1.20014888184589,0.924356885822114
mp-560121,H5CNO3,1.42573377949742,1.5729148832661,1.54569049295129,5.1534,14.5877248950256,13.3848581222201,83.3897447352907,0.741866722534069,1.35994289505006
mp-812,Ho2O3,2.0717093594421,2.07170927979772,2.07170941253835,3.9654,14.5587665932781,9.78675846676589,4.26793094020425,0.464589283215062,2.38674437355368
mp-558539,Cs2Ba2(CO3)3,1.64668414396933,1.64668408324123,1.64668413789652,4.3766,12.5478799897064,10.4899218613108,10.9591012179989,0.67070569367885,1.58221527531885
mp-3700,LiYF4,1.51229444223008,1.51435457869021,1.53231333936633,7.8903,13.650591627929,12.4776569151801,13.9855239149844,1.07283994453071,1.00360799341362
mp-768820,Li3Bi(BO3)2,1.98155528310466,1.84299490775205,1.86017351878797,3.5132,14.293577304411,10.4072639587775,5.29167784364294,2.64937051290305,0.566424129268732
mp-28601,NbBr5,1.92791699769466,1.8814095434009,1.96906622539721,1.5583,5.95841100225297,4.27374308121118,13.3534299030279,27.8433730788716,0.11080231568824
mp-27641,CsBr3,1.56166940803744,1.84833381995786,1.94982844629983,2.2545,8.29328055061092,6.38431549811762,18.534689215947,20.7890644554837,0.102055100072796