MP_id,Formula,Ref_index (1),Ref_index (2),Ref_index (3),GGA direct band gap (eV),Effective_frequency (eV),Average_optical_gap (eV),effective_mass_valence,effective_mass_conduction,effective_mass_transition
mp-27307,Na2ZrF6,1.45238561339611,1.45608468160337,1.45756436564565,6.252,12.1857467772284,11.7408938056285,434.953499257628,72.7826791399915,0.016038629043592
mp-15257,Tb2Se3,3.08512504284672,3.21017866792489,3.14191481265804,0.3404,2.00824734365792,0.969224086876767,0.977262777758599,0.421776114600096,3.39419233536938
mp-771323,Tm2Ti2O7,2.37172130318889,2.26905638096544,2.35354366222511,2.9789,11.9990723199405,7.30291765775943,3.46416584474123,22.7242864724618,0.332675564376158
mp-29863,AsCl3O,1.58897890797833,1.65063021600842,1.61695866675682,2.5857,8.41279014569934,7.162088242785,22.9132152446775,1.6803788110756,0.638746846142491
mp-3521,NaBF4,1.32330325322656,1.32405653957828,1.31936232324559,8.0752,13.8786562064829,15.2868571362476,20.498124894704,0.647825768945986,1.5924098689155
mp-770092,HfP2O7,1.67516438894814,1.67551797065863,1.6755545798332,5.3619,13.6076831896281,11.1720007922363,9.80827727814343,1.04691322978606,1.05714370232347
mp-7475,La2S3,2.7543976401384,2.73703046201536,2.78904790385536,1.0342,8.59238663280379,4.57644043412198,1.23388853208417,0.512468851966945,2.76178408750528
mp-32689,Pr2Se3,3.13298369928731,3.13075709054535,3.1355550194503,1.519,10.9167385192817,5.2844201781051,0.968895053962085,0.592952027378003,2.71858059817193
mp-756372,Rb2MgO2,1.76463166694922,1.77682457490885,1.77695820997569,2.2799,11.5694816104822,8.97396132011503,4.6974343904873,0.34794464240294,3.08690256339514
mp-22856,Bi2S3,3.73297784483112,3.72022194230398,3.10091370728048,1.4023,11.6065001728967,5.16056490092272,1.80262139234373,0.442981458693889,2.81217848594966
mp-540850,TlPF6,1.46291246491374,1.46291246491374,1.46291246491374,6.3698,14.4571216603703,13.8388250303457,3.00417790721724,1.00082728999142,1.33204316085093
mp-3468,NaAsO2,1.82064261182693,1.73763839161087,1.6444122323797,3.7311,11.7844565637957,9.34157776979764,2.81133590487453,2.07041057247017,0.838698769102949
mp-1403,Sm2S3,2.8376633538882,2.82621347389046,2.88025481858811,0.7441,11.2172957105045,5.8331624366662,0.853852045326875,0.398815234492431,3.67858987213495
mp-755374,Sm2TeO6,1.99941681497381,1.99939894468313,2.09255528242386,2.6249,13.399014986271,9.16699237835024,2.9153652717708,1.5415499153837,0.991707966339904
mp-769818,HoCrO3,2.29644565796798,2.3202859112618,2.27426492739962,2.5303,19.1317761963413,8.47305789001693,3.84527637956261,6.50489046252415,0.413789820553945
mp-1875,TeF6,1.36562783729682,1.36691908319403,1.36684811519057,4.3688,10.9316415041172,11.4632521644046,53.666828484208,1.62699849562532,0.633262202462414
mp-768695,Ho2Ti2O7,2.37631070359076,2.27095784196889,2.34950424983655,2.9749,12.1605548127253,7.39908128921244,2.97262127339492,46.1937710332403,0.358051372888972
mp-24757,AlBP2H5NO9,1.5712193927011,1.59143932023813,1.57998334801352,5.2797,15.6435419935686,13.6683724363007,119.590422055645,0.560332226293639,1.79301739242921
mp-23307,NbCl5,1.71591498041133,1.74084069920254,1.73908440853226,2.2342,6.81900587605275,5.41257390368961,26.0566959285003,57.7174889674843,0.055703622294096
mp-1582,As2O3,1.97634565802645,1.83190817182521,1.81379802072888,4.0853,11.9149665649869,8.7650896519901,8.54201307439801,1.61384056584066,0.736708318781508
mp-559835,BaTaF7,1.59567529905053,1.59567529905053,1.59567529905053,5.6918,12.8158702614687,11.0831050671564,26.5999187146665,12.2549504951271,0.119193776676391
mp-675424,Ba2P2O7,1.62692973111933,1.62472913742568,1.65225948627932,4.5813,13.2915675478387,11.1985067760816,14.3252752098766,0.561934282290156,1.8493742119
mp-768223,Cs2CeO3,1.85454652408614,1.92439202606953,2.04102973275746,2.2414,6.3960455710468,4.55780041384755,8.95596405880109,118.143424395374,0.120121726077569
mp-7310,ZrPbF6,1.73012929863638,1.73474516860546,1.74019497470829,5.0472,14.0305088230233,11.1169609574848,2.4868346524741,44.5015353332741,0.424588742034282
mp-696403,BHO2,1.52926094568586,1.53762614441873,1.35659726153343,6.0888,14.2572397306891,13.5143799197045,226.51997998682,0.615899434036936,1.62805631494437
mp-23228,PCl5,1.69502712662659,1.63604537223147,1.63604537223147,1.7747,8.12059591522769,6.7498096880947,27.0477750673523,3.45246014604166,0.326620145929885
mp-626973,Ba(HO)2,1.77982300805445,1.76609312042146,1.76097382433698,4.5412,13.3626767001294,10.386897661777,16.7122638358455,0.42341349987195,2.42159377697577
mp-542812,GaTe,3.39347320307675,3.01092705657244,2.93118745221113,1.0626,15.6250151372646,7.60184538314974,2.71940274180678,1.43655255671322,1.06383877895386
mp-582968,Bi6Cl7,2.62487979343817,2.5056744201911,2.62996259859337,1.6204,9.72490348199748,5.44674518713802,11.2072049351451,14.5489246110888,0.157961916339211
mp-757115,KSb5O13,2.09451085697831,2.08401107722584,2.00611005430909,0.7755,12.7578873176725,8.61296325117404,2.14998502769963,0.331681008272974,3.48006452567213
mp-561659,MnF4,1.70190667781756,1.81741767901603,1.80609096393288,0.8452,2.01060622988795,3.48647697324115,35.550755538131,13.471572824006,0.102359179634014
mp-768450,Tm3Sb5O12,2.23768582468585,2.23768582468585,2.23768582468585,3.129,13.3056758955872,8.37700099336206,5.42987813596319,2.80424942028034,0.540767856404696
mp-570285,SiBr4,1.53125387183184,1.53125387183184,1.53125387183184,4.1057,8.84566530647068,8.01403494631179,43.4377212095073,1.14655977861245,0.895195789637108
mp-759763,La26B8O51,2.03497885246997,2.04525938208336,2.00276473655794,3.4932,10.6578247918553,7.30042728756921,189.025435391076,32.2023551999591,0.036343922599725
mp-755558,BaLa2O4,1.99119740859614,1.99119740859614,1.99475862950884,3.5488,10.4234825439105,7.25182069215479,2.72502096018601,0.517853000142204,2.29801958503065
mp-27979,LaI3,2.28572995780341,1.8767596143353,2.31072323743022,2.1163,5.79480021173784,3.76163288002411,2.47753651243826,16.2832743295327,0.465039455492119
mp-30953,GaBr3,1.60963186785053,1.67205086944148,1.63186773054681,3.3652,10.7828718495799,9.06591232145691,11.0782207027693,0.932743567234403,1.1623732301827
mp-600018,SiO2,1.43116787275288,1.42316445290065,1.41620233723857,5.4543,12.96406381368,12.8520095861225,8.30452020056122,0.614609797948041,1.74746493028724
mp-768166,Dy(ClO4)3,1.56450660593044,1.56450654520842,1.56095057577106,5.7863,12.5375627201445,11.0924308578304,20.1900474313386,3.97760010540894,0.300937231166661
mp-675065,Er4Zr3O12,2.14670693854564,2.15197156812073,2.15634528543088,4.1773,13.5796773965141,8.83620398711438,7.09026030626107,10.9309626492637,0.2325217964117
mp-600002,SiO2,1.38911191053853,1.38911191053853,1.40130162349153,5.5773,12.5389005687992,12.7959522478379,6.99948605502967,0.615431414696234,1.76774406226527
mp-878,Ho2S3,2.58169988960762,2.57720289461268,2.55893615199754,1.4613,11.2869582349726,6.34903384668458,1.42216227660253,1.16325441091633,1.56281181185321
mp-28407,SBr2O,1.56303521713364,1.72462870786729,1.72671000749981,2.7504,7.57054408884997,6.23071707671015,18.5614674480943,11.4344485490231,0.14133007713314
mp-600033,SiO2,1.375100294524,1.375100294524,1.375100294524,5.4289,12.3024798522008,12.7854556347502,6.27332220763469,0.631639828832299,1.74258589271698
mp-625661,H9BrO4,1.54192006277887,1.52557089641878,1.54558192924219,4.4109,14.2661377184551,12.8622196579903,4106.74801065181,0.463322561504221,2.15856706086283
mp-1922,RuSe2,4.42315023145269,4.42315023145269,4.42315023145269,0.6539,10.1326251513077,3.82674430867176,1.79560573652746,0.340200473204979,3.4963584240225
mp-572892,GeS2,2.15016319380646,1.78557781964271,2.23518762747113,2.2685,10.7133463087477,7.24668503547477,23.810268778075,1.69037331971136,0.633583981507245
mp-1581,As2O3,1.92093072753809,1.90562232879445,1.70577927645988,3.6783,11.6990684857562,8.73714008305247,2.85596455616435,2.08080260500395,0.830728190386284
mp-10534,Sm10S19,3.11388369403868,3.11388369403868,2.8402110960279,0.5018,6.79523971337229,3.37851692168384,23.5965374894004,0.410396451219948,2.47904734273506
mp-13568,NdS2,3.00615750918012,3.24744381783581,2.81935810070307,0.898599999999999,12.5215775254019,6.22302925891264,2.90436376406017,0.421094399841823,2.71907391206523
mp-28256,V2Se9,3.06581988055398,2.76239794562623,2.64569761877657,0.7696,7.25401464581956,3.79596927017965,13.5334762836523,3.09275971389982,0.397226665715205
mp-27747,PdI2,2.64102291924928,3.19182102725074,3.30801580407349,0.9282,8.53089422297383,4.21614805461472,3.71804075835419,1.39920746858214,0.983649155059029
mp-569814,TiBr4,1.5993027418222,1.5993027418222,1.5993027418222,2.7939,5.79429645706561,4.99842294728398,47.5926087552566,25.8919480474138,0.059633711687155
mp-28448,DyCl3,1.94288137054222,1.66809444876482,1.91525393616617,3.925,11.2125277812412,8.38251635391326,12.8245523449119,3.83964232981295,0.338416356262855
mp-600004,SiO2,1.42134600643193,1.40998283322883,1.42447520511942,5.4296,12.9922390081871,12.9388505585175,2.94010957241097,0.607457717394617,1.98632849067988
mp-542001,CeF4,1.99018900107502,1.96434436135826,2.00224214070127,2.1092,5.3303750692112,3.71976290110678,21.6624154552553,108.57590032076,0.055373050741945
mp-15179,Pr2S3,2.83211100418045,2.80379148832434,2.85899093212973,0.7775,11.2828007890706,5.89308921443423,0.922159720005377,0.405785228403648,3.54876866159106
mp-938,GeTe,5.78255888599502,5.77860150555478,5.79957905886281,0.746899999999999,13.5314915063153,4.24068866442654,0.213393019811115,0.306389890788754,7.95000415288254
mp-27647,AuCl3,1.87411305955644,1.85564025069516,1.73970319020228,1.4055,6.48162694265188,4.8934207606776,10.668409661226,9.27124960231779,0.201595008725761
mp-540572,NCl3,1.44112737813144,1.63870238298478,1.60450647240826,2.1918,7.01731220497828,6.21689098424443,30.8256217328709,15.6013620401786,0.096537513785503
mp-865194,TmF3,1.77293709984308,1.77293709984308,1.75010343980006,5.7733,15.0755713300404,11.7420215760192,8.71712522160165,0.611309985286539,1.75054800550073
mp-7868,PtO2,3.11741129945986,3.11741114708984,1.68495329015377,2.0291,10.235339073317,5.6423938272933,39.524556984715,1.41530082594667,0.731864293369527
mp-617,PtO2,3.12142960997041,3.12142941935261,1.68203227971404,2.0151,11.7566700500685,6.47779561786217,5.18426366750211,1.43209414228315,0.8911695400391
mp-616734,Rb2Cr2O7,1.59890740820099,1.64131362938349,1.68142860092244,2.7868,8.81113480500013,7.39519112458558,124.888517413061,49.2490418493345,0.02831210481222
mp-27303,NaAg3O2,2.64385578086249,2.47282783064248,2.54340539041656,0.6596,10.2760552180885,5.81463223748409,2.57282479745299,1.06997078169652,1.32328280618794
mp-7232,Cs2HgO2,1.70957248749505,1.71294376148197,1.90705904470732,2.1081,10.2202820665617,7.91122704237805,2.48471832054461,1.2397064277395,1.20910269354287
mp-557920,Zn3(PO4)2,1.67148368224162,1.6775342440618,1.66479709874807,3.4139,14.8162046132597,12.1954596408172,8.96929313841811,0.456524316374885,2.30195533047493
mp-28290,CdTeO3,2.15431042331415,2.13168911898522,2.14024009167196,3.0725,14.3429387091611,9.36843199871983,2.72796580697685,1.37956548274057,1.09143942756114
mp-3349,Sr3Ti2O7,2.35757634658986,2.35742343884165,2.29997509551734,2.1173,12.2714823489171,7.45075525691865,2.36660794791611,131.883909760823,0.430128121042325
mp-616597,ReHgO4,1.95476436943177,1.93342294648636,2.07697983620448,2.7049,11.8661712698317,8.27031894316076,10.4022858252803,18.2601000422539,0.150896929613753
mp-554852,Y2Te5O13,2.11791244153294,2.08776712063391,2.11027414806702,3.0098,12.938087669106,8.57707087939131,4.34832975998753,4.33277013174284,0.460772586434929
mp-541438,Rb2MnO4,1.72604520798269,1.70251740372896,1.67555597340107,0.5128,5.48791826235373,3.39478875449279,0.009043371236689,0.009043308225404,221.157233887629
mp-17586,CdS2O7,1.58370693627325,1.59778228804803,1.60855555701381,4.0361,13.8402150628549,11.9606759750509,21.0076348502588,0.744831244826675,1.39018773908747
mp-504601,Cs2ZnO2,1.87618870053095,1.91555901240343,1.88341494631427,1.7456,10.8905196002712,7.94182227459322,22.0314563997422,0.383961968612486,2.6498142547557
mp-687090,Hf(MoO4)2,2.00693044722531,2.0069303052174,1.86462886655763,3.3516,11.6863026114991,8.25258573516877,9.78851042482288,2.3135086466307,0.534404489932733
mp-540966,Ni(ClO4)2,1.61858677864364,1.62049550446769,1.59104227159432,3.9433,15.3537662277116,11.3275510184161,325.183398003227,28.813972058877,0.037780572962967
mp-556442,Tc2O5F4,1.6740306478676,1.65163982756532,1.5917711927284,1.9357,7.5496456391982,6.34217750424561,2180.48007240615,100.443265370127,0.010414483681809
mp-19047,MgMoO4,1.80807883677676,1.80673571393273,1.82751061556424,3.7862,12.0843577507677,9.16676061849801,26.4183274964428,7.09567403025157,0.178783448230009
mp-5127,LiCuO,2.27439747625607,2.44160330111179,2.42538911517307,1.7487,12.4403724624047,7.44445690276436,4.02654523669051,0.665538175894711,1.75089526982986
mp-7128,Cd(AsO3)2,2.1058676264191,2.10586765728523,1.93129997152177,2.2327,15.7120167489101,10.670044260122,6.01111050222903,0.25648445713226,4.06523034556426
mp-31488,Li3NbO4,1.99033389409918,1.99033381873494,1.99033368810358,3.7997,12.2218719464079,8.51080497107993,7.98795241256587,2.08470219849746,0.604873348022801
mp-25080,Li2MoO4,1.68178567897339,1.68426487228108,1.68104569836754,4.1522,10.6620375659902,8.71622753091962,17.9289280143273,63.8707917642186,0.071432391885803
mp-13199,Zn3TeO6,2.15284590716568,2.16749860207567,2.16680274829067,1.1456,16.0793647442478,10.4187211271496,4.40157601397453,0.219808021389708,4.77661586071759
mp-7608,Li2PdO2,2.56919059822349,2.11439759506106,2.29051780608665,1.7845,10.2137547335233,6.23105788731737,5.2141842771219,1.98780959045377,0.694850844902058
mp-7472,RbAuO2,1.54216085412644,2.25914371167485,1.68878451556141,1.8013,9.09804305617926,6.84415411918047,12.3645006896909,3.20087671274384,0.393291105925536
mp-554845,Na2Zn2O3,2.00777304245276,2.00777304245276,1.99045947459374,1.2498,14.6143904460836,10.1240483932644,3.02965433392082,0.265006018015286,4.10356986957337
mp-19215,CaCrO4,1.86034733584887,1.91095052264573,1.87499921599984,2.3678,9.85915655973774,7.22377731442036,6.20271561730618,1.55697125461258,0.803492323425327
mp-3538,Hg3TeO6,2.15979301323067,2.15979316139301,2.15979296924497,1.1609,13.3088807328787,8.63233898411837,3.0953281938447,0.73050046791387,1.69199203569166
mp-8335,Ba2ZrO4,2.11950996459087,2.11996737474896,2.14429392341628,3.0901,13.1352564183203,8.62832684734348,3.4601541031511,11.0073042567344,0.379853234428459
mp-3527,Na3AgO2,1.98574981556086,2.06934709026785,2.00070137451845,1.3065,11.2764616067107,7.7547870198191,1.8412542611874,0.650651901098492,2.0800281670422
mp-4325,Zr(SO4)2,1.91072374245991,1.88873177291007,1.83156741071684,3.574,13.5268843739757,9.93610822766036,14.1246313671618,13.2830110895191,0.146082442858895
mp-566000,SrCr2O7,1.76951089569971,1.88402093672018,1.88402093672018,2.5032,9.26791048388729,6.91533418714534,44.6941278553691,10.7271646114454,0.115595582440789
mp-8957,Na5TaO5,1.68858052517492,1.72902395298619,1.725209914764,2.5378,11.9789490149711,9.6068244817714,24.1570182211207,0.516902009377063,1.97599849301829
mp-541193,Hg7Cl2O3,2.50538921527175,2.92575034478337,2.28908899783298,0.9253,14.9594865170867,8.41282455855515,1.38355995077569,0.530190480542619,2.60888775011641
mp-555977,Rb2ZnO2,1.78410031108119,1.84301018174073,1.78777776862786,1.5095,11.3842984466592,8.67771356991572,22.8961288735765,0.393602363205221,2.58431065772044
mp-32486,VPO5,2.00021109885932,2.21573406572179,2.02596343747857,1.6981,9.85933609936812,6.6029959292792,5.08676990278316,5.15818332955472,0.39045511243861
mp-8666,CsAgO,1.83018748493153,1.9936799993981,1.96504812409264,1.4479,9.96971620233036,7.13904429512653,11.5764804125582,0.937994354955224,1.15248653753643
mp-5558,NaReO4,1.69104170853353,1.69449037176373,1.7335144764322,3.615,10.6684002797227,8.59603737593918,6.99447370668197,4.03457489841455,0.390827600736114
mp-8759,Cs2ZrO3,1.90669979021345,1.85996027108108,1.84140382588937,3.876,11.8501253184283,8.73767480359787,8.35239610131635,0.886394859319462,1.24789151020957
mp-19426,CaWO4,1.94175336487413,1.9419870622638,1.95388500685173,4.3435,13.9952587366271,9.94561282990106,7.38153667048927,3.99955649244,0.385500868964748
mp-5794,Zn(GaO2)2,2.05528859530724,2.05528882398557,2.05528862450022,2.4923,19.9967103276954,13.5358036245893,2.19795176415496,0.23524621665901,4.70583442590445
mp-13995,Hg2GeO4,2.18975545666634,2.24653442884813,2.37411857538751,0.9329,14.4906438337855,9.01465224238991,9.28067668226018,0.559829987826926,1.89400734468744
mp-17911,Ba2ZnO3,2.05624014648095,2.10029460552562,2.09400705586204,2.6732,13.4512443406883,8.99778592003311,12.6603205934128,0.362407042713466,2.83831521628468
mp-558571,Sc2Te5O13,2.24703981273141,2.20139738802425,2.20735633281081,3.1123,12.3119668744666,7.80701591051848,3.74660601340269,2.34206077219063,0.693882638461484
mp-27352,Sr(Ag3O2)2,2.68460857295808,2.69443545107319,2.70225885325592,0.8893,12.7128799104732,6.89926476707127,4.42722192873677,1.17536751273662,1.0766730016332
mp-28796,Sr5(AuO4)2,2.06287148896871,2.2055741361378,2.16255688480095,1.2743,12.3311146667922,8.04927701815146,2.2909590773243,1.22485776408352,1.25291973841509
mp-8830,NaRhO2,2.84630791552847,2.88628670786532,2.0642230814522,1.3983,9.85532363723084,5.49965440347387,15.2492062906728,0.985901367399145,1.07987743007824
mp-7469,NaCuO,1.99228685685571,2.20406006270247,2.17593032746915,1.3999,10.9530233934953,7.2059633984059,4.85405575768985,0.957681774774362,1.25020148177078
mp-28812,Ag5BiO4,2.82834630482195,2.86454341911586,2.80926025138292,1.5651,13.2711346656631,6.92710455181641,3.08473587599087,4.07201837742142,0.569755322629416
mp-8922,Cd(SbO3)2,2.1065909545994,2.10659092611736,1.95359043046387,1.7346,14.6482144645839,9.91412594955595,10.8916371515646,0.237650741090928,4.29966915439718
mp-3834,BaZrO3,2.22529910573837,2.22529910573837,2.22529910573837,3.237,13.9552143212654,8.82671572375383,2.08862860454495,0.544800342260959,2.31431788600213
mp-28568,Rb3CuO2,1.84030641742075,1.82269996433862,1.84771535686642,1.4372,9.94923065092142,7.45787919466618,49.4824706043169,0.742924462099584,1.36624104283896
mp-3924,LiNbO2,3.3357980079735,3.33579729450097,1.95359484284741,1.5795,14.0830592987485,7.27107716481856,1.08239354150302,3.20926242581606,1.23547646457055
mp-3982,KCuO2,1.5408481495592,2.55635710142382,1.71300307063356,1.2389,7.68631692967073,5.4856011376135,22.5797801813951,3.8931987520393,0.301145604685211
mp-542453,NbPO5,2.17910089486467,2.07070662818276,2.05806233627653,2.3831,11.9836033609437,7.95308010566764,14.2437198278242,68.904416906247,0.08471923725622
mp-25071,MoPb2O5,2.09666947085133,2.16400204713397,2.12569478759299,3.1085,14.1487710477591,9.29085633251927,14.4298043517572,1.32976783997751,0.82131197649473
mp-5072,Rb2HgO2,1.67491798605185,1.67762721127192,1.85512819503128,2.0173,10.7549872180475,8.51737506291733,6.38992253685471,0.993424373880521,1.16311557101151
mp-13820,Cd3SiO5,2.10718782741359,2.12425910142807,2.12425910142807,0.9679,16.2074640796396,10.6866703353082,2.08763940038906,0.25097994420386,4.4633920399171
mp-623854,NaNb3O8,2.2136730562574,2.17477129142354,1.87410208366567,2.6303,11.7661833168232,7.85755471473952,7.9631325398916,36.2619510837976,0.153155836194559
mp-27227,LiAg3O2,2.78022029343,2.6854852652733,2.74727338282887,0.7278,13.5925483318135,7.28527690372622,1.58737769239096,1.11557566010728,1.52636798307193
mp-3397,Ba2TiO4,1.95914617627169,1.98042663080459,1.93460398790037,4.2409,12.0643306461672,8.52517984213229,7.32476807185004,1.10166674955927,1.04423860815149
mp-5477,Na5NbO5,1.71933836402263,1.769292203114,1.76297062936397,2.6404,11.0524569808664,8.68020074972679,24.380333061643,0.540621221706342,1.89074057681517
mp-540584,K2PdO2,2.35633538359886,1.90680533091346,1.92389939965685,1.5245,9.79661996228429,6.61154132105251,51.1710490443285,32.3554140055633,0.050449028779656
mp-7638,LiTa3O8,2.30202662669223,2.24828116346688,2.23953080800421,3.4614,13.742191401048,8.5704721389416,3.75415002051308,1.57343684840885,0.901923285528863