MP_id,Formula,Ref_index (1),Ref_index (2),Ref_index (3),GGA direct band gap (eV),Effective_frequency (eV),Average_optical_gap (eV),effective_mass_valence,effective_mass_conduction,effective_mass_transition
mp-867938,SnH6(NF2)2,1.49996180951383,1.49865246805255,1.50603985007038,5.0929,14.3453731166448,13.3005693182809,17.6135277977995,0.638242702372397,1.62357663348502
mp-768348,Sm(ClO4)3,1.55332084258211,1.55332082326865,1.54983335555794,5.6947,12.392002516965,11.0531078839173,24.5243916489424,3.78857926502752,0.304726919700976
mp-29355,NaTeF5,1.49031579874871,1.42087869644104,1.47260501493102,5.3062,12.1375755639717,11.6348760331597,8.17457678495549,3.90649804982025,0.37831423683976
mp-30023,Ba(AlCl4)2,1.57356431072899,1.51055993260777,1.56586581161988,5.3917,10.9374946272798,9.7712762151335,41.2888134053582,0.628938604865672,1.61419994851873
mp-865500,Na2Hf2O5,1.82967703707512,2.0142641956804,2.0142641956804,2.533,12.663418597636,8.97054309704294,3153.41660978797,0.495009073009275,2.02048210832926
mp-769284,Dy2SeO2,2.36023502855118,2.35973017525309,2.35614647464881,2.3773,14.1613131230703,8.53764343839962,1.60004089765896,0.628362305667541,2.21642258016132
mp-27404,As3(HO2)5,1.75837637609245,1.7010268075489,1.72664412372672,3.0986,13.5811215269053,10.8003675785106,28.0232000716068,0.627829813720647,1.62847304745626
mp-7693,BaTm2F8,1.57904064862181,1.59207177602016,1.59935504188407,7.3636,14.3142752876441,12.426204671587,15.633208540126,0.618489045191362,1.68080990753716
mp-8217,Cs2GeF6,1.42083373059623,1.42083373411529,1.42083381857274,6.0358,12.6717926832359,12.5934932014848,64.9762101285675,0.69153303108267,1.46145277166909
mp-29514,PHF4,1.34563233462934,1.34290835130325,1.32949462578831,7.559,12.7600287360613,13.7807554257557,16.0853551042049,7.11960123218292,0.202625655625431
mp-9820,CsAsF6,1.40950177013014,1.41042130585155,1.40883527071124,5.1311,12.328611574994,12.3827834249201,22.3093664139079,1.11432501611541,0.942228467526915
mp-768483,Lu3Sb5O12,2.2410407693748,2.2410407693748,2.2410407693748,3.1343,13.3904667649515,8.41987288457697,5.72037702914277,2.79718076999742,0.532316467362316
mp-677103,RbHF2,1.39221008472141,1.38326649276269,1.38564781961363,6.7058,13.224577568209,13.5782141938867,25.1577973998755,0.542388225359815,1.88344694861892
mp-626256,H3NO4,1.56389388067094,1.51640906420398,1.34610386300612,3.7633,12.2029241318155,11.5576809472496,74.2573728943451,8.24123883961561,0.134807656588933
mp-9819,RbAsF6,1.39685555087131,1.39808303759112,1.39601665462845,4.9784,12.6017672860395,12.8120399152905,10.3915319124998,1.06023977811539,1.03941507519128
mp-542129,CsAlBP2HO9,1.59846943355198,1.60726974089603,1.59309957315919,5.2678,15.0040111772261,12.9403937315156,38.162747014603,0.610166333657132,1.66510093525473
mp-13978,Rb2ThF6,1.51374241203713,1.51374236579413,1.54921043761008,6.3675,11.2915403897596,10.2744403021569,22.3327890660624,3.43076244481989,0.336257607797999
mp-29094,Nd3PO7,1.88051707516842,1.88795676062774,1.9262624769226,4.2814,14.2685499639353,10.3721736734084,19.3986318922463,0.715695699961089,1.44879189967749
mp-2392,Th2Se5,7.54889182396993,7.56244015381279,3.25143691158232,0.7359,12.7998577542513,3.85990811713788,2.26487202278767,1.2579278983194,1.236484173164
mp-2371,Ga2Te5,3.8254932113389,3.59036478787323,3.76103415831338,1.0492,12.7658050849139,5.44593696657508,0.781162743883645,0.262714641854836,5.08655434706834
mp-625447,Pr(HO)3,1.80752047567932,1.80752382003668,1.88472191848028,3.7453,14.8276446073013,11.1357006180477,1.89231916444151,0.56615302247426,2.29475899837793
mp-30209,LiBH4,1.59260601216999,1.55462726722517,1.55698914575536,6.8339,13.1869491269009,11.6271552436578,3.37549279050584,2.08476490538044,0.775923432088729
mp-542130,RbAlBP2HO9,1.57191404981316,1.58650364323565,1.57236328499492,5.2635,15.0758951960236,13.2091676382421,61.7131457182865,0.571781151577109,1.76512489214958
mp-29330,K2H5F7,1.33014870973136,1.32345208073432,1.34131303952508,7.1716,13.1580421204449,14.3356095278307,402.133501948882,0.604093803651069,1.65785878943324
mp-754154,CsHoO2,2.03987041745303,2.03986414743727,1.99841417629079,3.0575,12.2355598141377,8.38704646236726,2.88758742569599,0.536821453939099,2.20912661815233
mp-2650,P4S7,1.80686394064412,1.89731907964897,1.90320407208476,2.7612,8.52422327442396,6.28603369327659,21.706937748017,11.1097404168256,0.136079324744351
mp-18566,LaSnF7,1.5034426560398,1.50473763161556,1.5051221080032,5.2031,10.5954948143683,9.8012894972109,293.955653034764,1.16880259124548,0.858978347837017
mp-626417,CsH3O2,1.63877540254911,1.5910711297739,1.58888544583932,4.0949,13.2657878278847,11.3896979548792,3.41916257056635,0.426384450213183,2.63777056292075
mp-22983,LiAlCl4,1.54278312798656,1.5892815420812,1.57976068440761,5.5616,11.8549716364905,10.4337992288933,18.7834127727352,0.526786172311542,1.95154189584297
mp-570679,TaI5,2.29978355938119,2.17383113189594,2.28182294229855,1.1727,5.87239196792057,3.67784511196603,5.01326572907913,6.24949447027877,0.35948371755579
mp-771136,Ho2(SeO4)3,1.63547666751929,1.63547894514115,1.60777113110044,3.8112,11.5371687852496,9.77402691932638,6.96333294696708,0.717553521942672,1.53723365598376
mp-13947,Rb2HfF6,1.46093357823003,1.46093374593101,1.44573796726793,7.1426,12.8612508383763,12.3861120306189,20.1361852946297,0.564182229532691,1.82213879391492
mp-772195,Dy3Al5O12,1.90555822004997,1.90555810197433,1.90555818856313,4.5685,15.5482946720475,11.2624822674241,3.41462344157858,1.07825323669358,1.22028398092619
mp-1340,Ga2Se3,2.78218275819544,2.88157979414071,2.77708310822705,1.0376,15.1659971105007,7.95994916583991,2.46712482667544,0.17016335873505,6.28203593547197
mp-23202,InI,2.842610745424,2.99319142889325,2.88853213414703,1.3568,14.8174375974482,7.58431244261101,0.381088859062484,0.282535634519995,6.16343646957911
mp-753774,KTmO2,1.92648515436792,1.9264849545221,1.78702582801704,3.9742,13.6181001566959,9.98830422151374,3.60943723537216,0.425968107129173,2.62464509500897
mp-770406,Sm2WO6,2.14808873187306,2.11225454905416,2.11698326871045,3.7494,14.2070605264817,9.34044790422401,17.3625008120288,20.0629350808288,0.107438545522822
mp-768605,Ho2TiO5,2.07953950912215,2.1164208891428,2.13400668930535,3.3947,12.2278514451533,8.09079081501762,22.7163346187329,110.118725310383,0.053102294035319
mp-556056,Pr10S14O,2.7970018484084,2.79963318668714,2.80100491252693,1.8843,11.6304670090055,6.12827682987517,1.67023570001368,2.58550638333982,0.985489323075473
mp-770571,Ho2WO6,2.1410588128307,2.10569540769789,2.1095938234646,3.7911,14.0295105267765,9.24979773897529,14.3267837033161,21.4196969453158,0.116485338058794
mp-530399,LiAl5O8,1.77681921421398,1.77681921421398,1.77681921421398,5.2595,17.2648103110414,13.3620355485085,13.7633559484356,0.411581380972705,2.50230985125484
mp-765916,Ti2CoO5,2.46175822533408,2.48724789677266,2.38382462861679,1.8169,13.3350055617468,6.18871514251295,0.218319526234156,0.22323887021375,9.05994896621846
mp-27857,PdBr2,1.60103100844425,2.52054665499371,1.93659825983605,1.2209,5.87058898199621,4.03578578515804,5.39485090598751,1.89569601899048,0.712872669283646
mp-22877,VCl2,2.11349244853158,2.11349251004114,1.68051958036793,1.2565,19.0211184211025,4.70228349572257,28.2687923080395,2.171249111416,0.495939077948319
mp-2242,GeS,3.43152884003617,3.32325641051063,3.3295284185602,1.2376,14.2649874224906,6.55645854972957,1.546851216902,0.560709131925286,2.42993046899605
mp-756746,Rb4PbO4,1.7872405014435,1.78211298182803,1.77923390536489,1.6445,10.391129295705,8.0156179881723,12.0185907087788,0.529586586115913,1.97146978015637
mp-560799,NaNdH2S2O9,1.59897343317517,1.59897364581159,1.66365554728135,5.7378,14.2447675882833,12.1135149783198,31.5902001112375,0.561908272022442,1.81130528648298
mp-29327,SmBrO,2.08154622336378,2.08154622336378,1.88425012936181,4.524,12.5596498661435,8.64790541068423,2.08509657653167,0.959368438901603,1.52194649775783
mp-755515,Lu2TeO6,1.98051457454875,1.97966533282775,1.91740227391124,3.0888,13.4317409711559,9.48649245048168,14.9932931381146,0.618818091592102,1.68268027024169
mp-31302,KCO3,1.40285703476869,1.58843204450175,1.46580171237449,4.1853,11.840633645571,11.1199738450853,149.07951809085,11.8955277087124,0.090773036638455
mp-530449,Ca3(AsO4)2,1.76899645844756,1.76987637421375,1.76175030296578,3.6525,13.6833112956495,10.6484562437665,236.141800887187,0.518807097678144,1.93173343149251
mp-625402,Sm(HO)3,1.81299511582354,1.81300602867172,1.88719440175092,3.7105,15.4809800929896,11.5995103960826,1.8218473445721,0.552338463841734,2.3593774972415
mp-28405,S(ClO)2,1.46939557301633,1.51824114026725,1.45304249421688,3.6567,9.54546933576654,9.00502314780298,29.4234943761979,1.48550642573112,0.707157549496975
mp-531778,Mg17(As3O16)2,1.7804336859316,1.78194077342655,1.80717944322084,3.1198,15.0457391255083,11.5621357169618,56.2885428720981,0.439164247380855,2.29481799671472
mp-23250,UCl6,1.65475687035891,1.65475683712139,1.66253661914558,1.5985,4.13943297028497,3.43710143457938,12.1464657921438,30701.0583547725,0.0823610467301
mp-754055,CsErO2,2.03959271424468,2.03968138688375,2.00176069249049,3.0693,12.3809660012666,8.48316771721959,2.74273160425159,0.530857034211201,2.24834636974655
mp-1683,ZrSe3,3.24808525596235,3.56464471862204,2.34776537158209,0.5899,5.68253287195301,2.80392995251282,6.3912513784563,3.99779255290907,0.406601923386641
mp-754596,RbGaO2,1.75683900799134,1.75683900799134,1.75683900799134,2.4719,14.2305797169562,11.1365572707578,3.90203162900396,0.314867226439005,3.43221859881717
mp-756040,Gd2HgO4,2.29504158567988,2.17177823453501,2.24176089715206,1.937,14.0214947479803,8.83257477802161,7.07905456770463,1.66758233330744,0.740932342351526
mp-673650,Lu2Se3,3.09877267478594,3.09796371185978,3.09352614826511,1.7849,11.5896762582317,5.65903218444773,4.21578431936214,0.741672846152718,1.58550715846574
mp-568284,SrI2,1.90795666879518,1.93519285602237,1.92155972064362,3.8021,10.3976377311642,7.47400169856196,1.49416215338249,0.5819376158463,2.38766865469099
mp-13946,Rb2ZrF6,1.4736978557357,1.47369780484331,1.45680697417331,6.652,12.0483634618795,11.4825815122313,19.215569349902,14.3823715521493,0.121570695368603
mp-31049,NdO2,2.10184988046245,2.07585435664451,2.09924074846122,3.7329,14.1664533201919,9.44170863435795,2.45342680055602,3.68618555026487,0.678876309669547
mp-755565,HoBrO,2.00576936361088,2.00576905699535,1.90176773555553,4.0302,12.4450467657338,8.74183058887323,3.87059504602256,12.5117559495548,0.338283040620084
mp-9308,Li4ZrF8,1.49538375676614,1.51959331730565,1.5214567065809,5.9638,13.224889722205,12.1594234846186,31.8468033378734,11.3273252496687,0.119682420450033
mp-698669,Nd2(MoO4)3,2.03292153316354,2.02661897750909,2.02681687381964,3.5548,12.3857896606744,8.47993508108406,11.3532471005656,7.85593845890937,0.215372767600773
mp-7571,KNbF6,1.44063360019125,1.44063360019125,1.44846938524775,5.1611,10.2185236608174,9.95063958567157,15.1748007626606,62.7850240958306,0.081826088599366
mp-756400,NdBiO4,2.473022229985,2.72030850456341,2.48594330788134,0.6771,9.10069167107532,5.13943250310418,4.31282935421679,0.366561512561359,2.95992143949096
mp-755401,Na3CuO2,1.83771276591311,1.83771276591311,1.82461523067194,1.3658,8.80168541240272,6.60983541696972,7.60652992576209,1.00339346890726,1.12808399946688
mp-706,HgF,1.94849251730665,1.9611195756506,2.39123115361104,2.4565,15.5789703025852,10.3491300405128,4.8377155220428,0.763477982797675,1.51650460253377
mp-626263,Ba(H8O5)2,1.53542278542426,1.53483371086252,1.52515041881121,3.8361,13.7512413246826,12.4532269144271,56.4554137018347,1.65913958114536,0.620435137342959
mp-752713,HoBO3,1.86725677398691,1.86783768834447,1.88422106187146,5.4919,15.6197584540417,11.4956875540704,7.56681800753392,3.21678142421704,0.443025685508724
mp-769144,SnGeO3,2.03358724917324,2.04416196520726,2.09015678359304,2.0668,15.5861934983499,10.5472705773749,4.96480625808412,1.74711026366253,0.773791448218529
mp-768232,Rb3SbO3,1.75359005471632,1.75359005471632,1.75359005471632,3.1639,10.8644027433602,8.51780530375291,11.0645662397937,1.92709011764801,0.609295691491711
mp-758868,MgBP(H3O4)2,1.5636734633548,1.5636736552107,1.54340461642435,5.3035,15.8059524849098,14.0491988435674,8.44059149150912,0.531177449761669,2.00108514946515
mp-9921,ZrS3,2.89738699520792,2.65782899374659,2.10067537711089,1.14,9.39105195963243,5.31615382549151,15.3015883594941,1.49730703982461,0.73321838304844
mp-30984,S(IO3)2,2.40181447035361,2.43453783499045,1.70700903629711,2.0222,11.7013228092246,7.52679683349055,1.91348052820865,4.51234018974386,0.744222375494731
mp-684,BaS2,2.16439935547948,2.45846188296666,2.08934169536723,1.6297,10.321767793584,6.4990782871529,4.84830906090688,1.99058939738772,0.708621251026757
mp-626369,Nd(HO)3,1.795038679249,1.79479512201254,1.87076463244311,3.5877,14.6687642046734,11.091588668054,1.9125042538901,0.578963488011215,2.25009929026698
mp-23177,HgBr,2.09490538211156,2.13527930257379,2.67535470545496,2.6502,13.823745826356,8.50198222275196,1.65564850369296,0.883328562824061,1.73607452115074
mp-542266,KSmP3HO10,1.6215676643298,1.62473222101367,1.62474320432492,5.5119,14.6645741872535,12.4445233531676,10.1565631068259,0.543576207610946,1.9381269543511
mp-30320,RbHfF5,1.51741810652173,1.52874428535318,1.53355528429855,6.807,13.1718826953113,11.9761673234511,50.9507650497069,28.5391933114272,0.054666323463651
mp-753192,Yb4Sb2O,3.78245478756852,3.78245478756852,2.95048337734684,0.878,11.2950855965678,5.03551127615624,0.521002150330574,0.39224126120174,4.46882919179106
mp-29204,P4(S2O)3,1.78753455351218,1.72356341629776,1.76347879204713,3.2238,9.74025402162087,7.61673753831647,7.2019133573194,5.50182325139013,0.320609918814469
mp-28255,LaHO,2.16768508091005,2.19091537034181,2.19091537034181,2.6615,10.7757890571745,6.92595652936073,1.13756327505752,0.755126159304232,2.20335400531921
mp-648,Na2S,1.8841120348854,1.88411204019294,1.88411224984076,2.4399,12.1404132172916,8.88642289030336,2.75929833885354,0.304576264139321,3.64566091137423
mp-30247,Mg(HO)2,1.61720836938225,1.61720805093222,1.61083353267804,4.1797,16.7372420902903,14.284906597318,4.67727113122075,0.453627997756232,2.41824935028814
mp-27880,Nb3Cl7,2.21014626665296,2.1941147850557,2.21620893419371,0.9868,7.38011799372208,4.70064075586981,23.064225423305,26.5494343136505,0.081022775779292
mp-775485,Bi3PO7,2.32765810848587,2.1719862453524,2.28421850093199,2.4297,13.4838811333273,8.41551123288833,4.41040680097215,0.743375498938423,1.57195162673404
mp-7028,YbOF,1.71153004940024,1.6354036076761,1.64095843640234,2.6836,12.9991655772023,10.7577466813771,110.688584845027,8.05924260290031,0.133115494067457
mp-635441,SiI4,1.70576240432248,1.70576240432248,1.70576240432248,2.8561,7.54725150800156,6.08330274264991,20.2757512119841,73.7172527922774,0.062885342998456
mp-755336,NdIO,2.21233300160713,2.21233300160713,2.00628838654865,3.7768,12.438931713062,8.11970760583467,1.19397232958185,1.3111624375365,1.6002223551335
mp-752538,KSnO2,1.96425916059974,1.94116663375404,1.97164302042738,2.4574,14.774296442317,10.4355265305635,8.55127478619082,0.794146182993664,1.37615563907443
mp-8224,CaSnF6,1.37497336337836,1.37497350156285,1.3749732615582,5.377,12.0047326152322,12.4776490235455,5.84456360241481,0.821569665349638,1.38828140638537
mp-23856,LiHO,1.51191933316563,1.51191933316563,1.46660383539659,4.0057,12.73269411842,11.8502335246994,3.76143153287304,0.688226278623256,1.71886671481982
mp-696965,TbCs3F6,1.46478829869712,1.46478829869712,1.46478829869712,5.7858,11.6601911047916,11.1436483381183,1.62709352088381,0.48652306487569,2.66999383501634
mp-23263,LaBr3,2.06314145903765,2.06314133543972,2.17284570782189,2.9861,6.58156324819391,4.37316706465588,2.48248125756949,45.3137892124213,0.424891117045098
mp-31053,Ag2S,2.51386094881956,2.82385934670975,2.70756101500963,1.5082,14.2049256894876,7.73569040200251,1.10952036111706,0.739989965006814,2.25266003187141
mp-673696,Lu4Zr3O12,2.14007298940947,2.14417098198814,2.14900797811455,4.2277,13.7586116903119,8.97841648040274,6.16467218738975,16.1439826393058,0.224157211043253
mp-27743,BiF5,1.60130340348105,1.55013381680421,1.56083611887988,2.0704,7.88479900082771,6.93883074160892,24.7509754704288,1.42539527044526,0.741962233393819
mp-27770,RhCl3,2.39797571297125,2.36502887085972,1.84766344337923,1.6283,7.75727413124059,4.94701161585642,4.62698571494343,4.0130103063429,0.46531291706243
mp-772840,Sm2Ge2O7,1.9554702324505,1.95254455775022,1.93465788965388,3.6734,15.3844040142325,10.924243651113,19.1233696204476,0.476360714034737,2.15154155892595
mp-17697,KSmF4,1.55762445409669,1.53782232068598,1.52515822457868,7.2334,14.06630185595,12.6581982783423,21.0818593404391,0.581108669649889,1.76828267639702
mp-754825,NaTmO2,1.94865626779071,1.94865625239548,1.74460003439184,4.0762,14.350806793304,10.5223897796695,2.87408570528183,0.38966777062373,2.91422544521745
mp-696078,K3ZrH2S(OF)5,1.46199920656613,1.50783576691893,1.46920204192616,5.1147,12.5170911091915,11.8137566754863,461.095549355273,922.316754889592,0.003252974100999
mp-29062,ThZr2F12,1.6568118873306,1.64017281101718,1.63533019295798,5.5413,11.62253414015,9.7324545602618,40.301346090493,3.93579568648197,0.278891296559272
mp-570668,LaSe2,3.67884373954644,4.12100366173096,2.96873378395571,0.6435,8.81361257741668,3.86210870234349,4.42148852977831,0.444262714798982,2.47708855957508
mp-780370,Sm3Al5O12,1.9260577301836,1.9260577301836,1.9260577301836,4.1378,15.638967054814,11.2176292156277,4.64641803428781,1.06885329556488,1.15080164017615
mp-1170,SnS2,2.66155635108483,2.66155659154563,1.8117614826461,1.8228,11.3487950493872,6.79626582560199,20.6312456419574,3.24846894081442,0.356307499155774
mp-18529,Tm2S3,2.43419487921571,2.43419490591859,2.43419482170183,2.2738,10.8682925236004,6.38778493686419,1.58301391604311,0.591789908117742,2.32149525587319
mp-22908,BiCl3,1.86098634600042,1.88879480621903,2.18101910583103,3.4954,10.2298590695575,7.16679455024253,5.73164639406245,1.03778754671671,1.13805829940546
mp-28406,SCl2O,1.59050431310324,1.45273128623294,1.5640570481923,3.6375,8.66361860488541,7.82237204468167,53.5749664949076,6.51177583887931,0.172233373775819
mp-771255,Cs4SiO4,1.79083332836978,1.79026249192681,1.78984372502182,2.6836,10.4778872740912,8.04988475664273,62.3563772094252,0.458792570447801,2.19567110169735
mp-600000,SiO2,1.3865452498927,1.40287324801637,1.38792487188608,5.4117,12.754774605665,13.025607962124,9.37661114669828,0.628987140120782,1.69650596235819
mp-8560,SF6,1.30960962122306,1.30960947995958,1.30960936923955,5.7755,12.0651450407411,13.4921638690769,26.3200619702079,1.21840092724956,0.858741729548244
mp-685633,Y10U4O27,2.42021061480194,2.41446030408454,2.37202500619197,1.7218,8.80852722579613,5.23249359054598,5.53103503420649,4462.77435949007,0.18102206282127
mp-557364,CdB2F8,1.41426601104601,1.42541124592168,1.41387166320002,5.4624,14.8445252099336,14.7939179005274,44.283807485969,0.882029084028416,1.156331080036
mp-540703,Cs2S,1.96853454630596,1.977219686833,1.99364647568219,2.0957,9.64095649182158,6.74546499546707,3.39195022099524,0.301246954051048,3.61435128592249
mp-865758,YbGeO3,2.06434238439267,2.06434238439267,2.06434238439267,1.9719,17.8028431938633,12.004658725499,1.70459212009295,0.222185768171919,5.08738892149626
mp-771031,Lu2TiO5,2.06720450850902,2.11532821566772,2.11501446330752,3.4011,12.0454617141304,8.00542668748348,19.1336833272405,141.43370478325,0.059334302771409
mp-698491,NaCa2Al4H8C4ClO20,1.60769401939548,1.60769401939548,1.63589244756494,5.207,14.1335008034149,12.0464665491841,10.127870127281,1.37701086923951,0.824948123263792
mp-2706,SnF4,1.54498809380526,1.54431569311459,1.54049026936232,3.3264,13.8664623541801,12.4498656537657,4.31844099759295,0.67021496776214,1.72362363902379
mp-626785,KHO,1.55755775815859,1.56725012362418,1.56253979789316,3.6928,13.2217801065174,11.705152218602,83.2892042466081,0.472533438413429,2.12825870902193
mp-775211,Ho2WO6,2.16685754723286,2.16161020537931,2.18671272918964,3.6612,13.7843620304023,8.89909728484185,5.76113182653831,5.89966734971155,0.343078085768422