MP_id,Formula,Ref_index (1),Ref_index (2),Ref_index (3),GGA direct band gap (eV),Effective_frequency (eV),Average_optical_gap (eV),effective_mass_valence,effective_mass_conduction,effective_mass_transition
mp-20374,Ho2C(NO)2,1.89789655671746,1.89789656725544,2.2175030913169,3.9969,14.3443885654239,9.92630740874463,3.01220393410065,0.778192108795858,1.61701257029691
mp-1519,CaTe,2.56733689452709,2.56733674067116,2.56733678351711,2.6204,11.9629361857071,6.7401408221621,0.598654898649494,0.37928204114805,4.30697182781801
mp-30537,TbP5O14,1.64824753905474,1.63282947364383,1.66591063685901,5.362,14.7262768780722,12.2928303071524,40.2746387397466,0.57103130944111,1.77604698251508
mp-754469,Er2TeO2,2.59533885263562,2.5954055887279,2.52950742635795,0.5424,5.06115130837331,2.8462525785434,1.20614664784119,0.393760284110827,3.36870278966221
mp-7618,Cs3YF6,1.43332058870303,1.43992048044328,1.44668558090554,5.3564,11.3253192156749,11.0606108535267,7.57094386763917,0.545536932671639,1.96514038994051
mp-209,Er2Se3,2.66171380692966,2.65884523242704,2.68295533693724,0.851,10.0349030611374,5.48687621131868,0.762126388698438,0.436198715109015,3.60465144128776
mp-557103,B5Pb2ClO9,1.88185364468122,1.91455513109443,1.9284541684987,3.489,16.2586459330973,11.7615380470868,7.08281138117141,3.28324036157755,0.445764026684745
mp-560129,Na3La2(BO3)3,1.80592498736797,1.77584502983791,1.77554330276679,3.7903,10.9481099932984,8.43189759943936,7.65387853811537,0.605087975478144,1.78330495671352
mp-754363,Ba2HfO4,2.07932178606391,2.07932178606391,2.10503068386188,3.6336,13.4103188340006,8.95412692524753,2.63010785220901,0.561392571667545,2.16149724744189
mp-559969,CaLaGaO4,1.91533179371095,1.92778910672304,1.93580287219541,3.527,12.0228825696369,8.62283622849985,6.93050385746816,0.491075433712662,2.18063668154693
mp-21801,Rb4PbO3,1.90972705379591,1.92163326365881,1.90765546941789,2.1723,10.8262543298938,7.81399943252048,6.54502609582904,1.85129696170041,0.692949633362636
mp-32798,La2Se3,3.03296088336134,3.03195035909231,3.03401143043331,1.65,8.29882744694528,4.11557918193367,1.05540733272881,1.04047510731131,1.90860086944992
mp-28623,Li4Ge5O12,1.83284885356103,1.89218197856337,1.8747340131336,2.9615,16.2233199313075,11.9788103268771,18.7883672492585,0.435130280711834,2.35138670723864
mp-12929,SmAsO4,1.87198678681234,1.92549553881592,1.88888700032585,3.6915,14.3480551338725,10.4441364335476,3.92616499975591,0.480793797237549,2.33459519185161
mp-3775,Na2SiF6,1.33391133513439,1.33391133513439,1.32828527809353,6.9982,13.2408743631608,14.4192675000213,169.779434776912,0.580645477702005,1.72811127860084
mp-31073,Na3B7O12,1.56403787358235,1.54731829304768,1.53127658181009,4.9953,14.4097012436514,12.8965829907956,53.0970922710249,0.648367560670504,1.56116845126759
mp-676305,Mg4Sb2O9,1.9448782738259,1.98263452254822,1.89337895044811,2.2598,14.5542865101071,10.3698415150797,22.2809525086511,0.402609456900089,2.52867798421621
mp-754329,CdSnO3,2.25567866505848,2.25567886455497,2.19439549534718,1.0725,17.1006043220845,10.7759870017395,5.02474576006517,0.166622058200937,6.20062137899594
mp-23189,BI3,1.75471407357438,1.75471381712232,1.46852084425111,2.9125,7.62817624136468,6.32605258148494,183.74561895058,6.64843972893651,0.155853537048265
mp-557763,Nd3NbO7,2.20358074052212,2.21312405210372,2.24911923650126,2.8046,13.2851930734608,8.41353568096845,4.35491158179574,5.42612507735685,0.413919364209183
mp-754225,YbTiO3,2.51492339445956,2.53842994782208,2.52541556184324,2.3173,12.2553802727734,6.99326002307956,1.86216087946475,0.965518761091842,1.57272318507111
mp-31050,Cl2O7,1.42914605621679,1.5594080190893,1.44622549763168,3.7183,10.6295147115934,10.0440726761977,70.9473298446163,2.97976103363897,0.349692344524317
mp-505400,BaZr2F10,1.53589408488997,1.54631897097591,1.54136596887306,5.7615,11.9883712633919,10.7802849620834,71.2202934511637,152.171414756552,0.020612478324024
mp-13055,Ba2LaTaO6,2.16295961358505,2.15196672604388,2.15923974120522,3.7089,12.2246104580059,7.93448376261428,3.46606371156932,4.4095164801812,0.515293953518956
mp-29226,Ca3Ga4O9,1.8630075576873,1.87246833084034,1.87250165553999,2.6397,16.1814514063806,11.9315441390282,34.9866748769399,0.3632417394258,2.78156989813797
mp-5476,Cs4Mg3F10,1.49147371414987,1.48560066639727,1.4809822956403,6.3006,13.1769912063774,12.3717289778978,50.3331183844127,0.485320840740055,2.08036023251373
mp-561207,UV2O8,2.04032883869243,2.07500593011201,2.16430604582624,2.0289,8.63666867063872,5.75406299967069,9.08813633312043,9.51344069601022,0.215148001526739
mp-14650,Nd10Se19,3.94987045990119,3.94987045990119,3.09525047774813,0.4409,2.88489096397384,1.24531731804909,4.06379099173148,0.376814392980696,2.89990209008173
mp-30299,RbAsO2,1.83203807274849,1.6338046639669,1.75098078516013,3.935,11.7678731769247,9.3032306648597,8.14883013427837,3.38806338669839,0.417870865505143
mp-755277,Tb3SbO7,2.07721494554608,2.07160467995223,2.07027213187059,3.048,14.3406581240192,9.63480112043775,2.40742710087524,0.553082750619893,2.22342892615178
mp-698163,BaPHO4,1.6902891646106,1.65744566125107,1.66579792291862,5.3804,14.2012771372455,11.689986277411,37.7135481749584,0.44750434906529,2.26113082427326
mp-571222,CsBr,1.57928039942247,1.57928059254839,1.57928011448254,4.2579,11.6357319278498,10.1780501372873,2.99688967397673,0.396583272239033,2.855217810498
mp-771762,Ho3Sb5O12,2.22789763903102,2.22789763903102,2.22789763903102,3.1428,13.4907796331958,8.52464709052322,5.60126483690797,2.94692619603792,0.517867733436769
mp-19521,Al2(MoO4)3,1.79182492448342,1.78100112577168,1.7651122202285,3.5888,11.2252412754805,8.67586160740541,4.82000511799896,11.5664668511674,0.29392548433625
mp-555131,CsCO2,1.58741155659142,1.56997231504253,1.55427206756089,4.1646,11.5855535970022,10.1970900616155,33.9778628208718,9.66751287896049,0.132870147866391
mp-558798,BiPO4,2.05556327316869,2.07210627864499,1.98771719064861,3.9659,15.1551882706325,10.3326840563762,1.75057334053153,0.860470419557479,1.73339641899679
mp-551470,Tl2O,3.61052166313955,3.62472868639847,3.31930359412935,0.5157,4.59790800165543,2.04429278014183,2.59039106178389,0.186743161780935,5.74099052263685
mp-754118,Sr(AsO3)2,1.93884233500303,1.93853805740305,1.74341956797553,3.5409,14.4218136650754,10.6114215925264,7.03868220401798,0.494877409237642,2.16277451212244
mp-542840,In2Si2Pb2O9,2.01154449118084,2.02189132002687,2.00808141518216,3.3932,16.7993823236793,11.577024496494,22.6602037840216,1.76969568036012,0.609199134625934
mp-559383,RbLuP2O7,1.58416740592653,1.60229718217314,1.59111404053889,5.1263,13.9957897218789,12.1298054462136,17.5356084878517,0.51103482405766,2.01384062847106
mp-21554,P3Pb5O12F,2.01529624621295,2.01529630079549,2.00070369620291,3.8446,16.6185346238283,11.4695771297849,13.687088352174,1.54830456321592,0.71892931800985
mp-30972,Na2Sb4O7,2.00750174595192,1.92609441357375,2.02873360745072,3.0894,11.7231570171893,8.17411313365106,2.57795352828571,1.35506993572947,1.1258738787087
mp-8136,ThSO,2.74524923276558,2.74524923276558,2.65106243796709,1.114,10.7413500709465,5.7959687200538,0.889503395601478,0.614871207726633,2.75057965133331
mp-638424,Sb2S2O9,1.88474006165307,1.88474006165307,1.78681162129644,4.2582,13.5699678401934,10.0931715366059,2.51673445325203,10.2018069335287,0.495362142071556
mp-17143,BaGd2O4,2.16860575946851,2.11705968975842,2.13486545711902,2.7986,14.0507890792741,6.65667980321237,3.75932662704416,0.789235318344325,1.53305431223699
mp-566052,Pr3BWO9,2.08246123373282,2.08246110167753,2.09276541446957,3.831,14.1917207159703,9.48371653675621,10.3542182583642,3.9319900871024,0.350903136300659
mp-14649,Tb2Ge2O7,1.94110923958442,1.94110923958442,1.92905429679934,3.7482,15.3039449778362,10.9203616472066,15.3833032354308,0.461406163176598,2.23229345635749
mp-4875,GdTaO4,2.24269387790666,2.18340828751748,2.15901121812741,3.3549,15.4679641717449,7.22419299919347,3.2015494676739,36.1091030280309,0.340042605734519
mp-3359,Ba2SnO4,2.07835385581955,2.07869552363977,2.09636663778071,2.7506,14.5696969937271,9.7420598560523,2.49976390923249,0.397041168029564,2.91866828928603
mp-567498,Rb2NaTmCl6,1.61075363727666,1.61075363727666,1.61076655974725,5.0573,11.4558253353911,9.80575727893875,2.53567392342483,0.42740227869391,2.73408859184361
mp-23193,KCl,1.5087800071581,1.50877996407694,1.50878015297127,5.027,13.9506688373346,12.8606863125102,4.16457711969239,0.468167511490454,2.37610801986126
mp-2275,UF6,1.47750618949634,1.48197419005865,1.47752843289055,2.7934,6.21883289500993,5.8726909640203,19.1496173415584,16144.2544827335,0.052282306165659
mp-572998,Lu(IO3)3,1.97097707241865,2.07773591199652,2.03516617503338,3.515,12.335991577222,8.44887076645289,8.6495321991146,2.23391826796813,0.563257140037508
mp-770846,Ba3Sn2O7,2.1377799465801,2.13190964395774,2.12756795191129,1.7012,15.1541254873562,9.93653992937697,5.5278907352822,0.428344225901983,2.51547180776206
mp-28730,In7Cl9,2.1924800021893,2.1924800021893,2.1924800021893,2.1903,14.4943410025657,9.28265146870734,1.86732619983718,1.42107401925159,1.23921818598816
mp-13972,Sm2SeO2,2.37171357039589,2.3717131677334,2.37814216984603,2.5875,14.6024766926661,8.757978830704,1.49704362332406,0.650101451958872,2.20620465960253
mp-559560,Nd2Ti3(ClO4)2,2.27955362297095,2.13797786938967,2.22151042086235,2.9491,11.1189261418614,7.06539922625698,4.65215231114757,266.253601742528,0.218710086883433
mp-772981,Li2Zn3(Ge3O8)2,1.97382451600947,1.97497986572015,1.97489874423982,2.5146,17.1806271692568,12.0492603407156,11.8849221945752,0.312096724716791,3.28827509755832
mp-756241,PrBiO4,2.5549550857109,2.50315958740149,2.62604883808356,0.7689,10.2468562756186,5.78380919076308,9.20504007865686,0.506998057724876,2.08103028138524
mp-771185,K2Ge2O5,1.65265748114968,1.66689999700042,1.66415355962123,2.9384,13.5713502247906,11.2411175181183,132.234269098516,0.505988817852017,1.98389059626866
mp-27971,AcCl3,1.80718849597932,1.80718851534642,1.88023234202585,5.1294,12.2125869304023,9.17994019613531,2.7973317953852,1.07019565908356,1.29189208826174
mp-30926,LaB5O9,1.7563546652086,1.79282540979316,1.75985888070606,4.5066,11.8550834810595,9.21138146858126,10.4109682340322,404.384770438081,0.098525437837112
mp-707735,MgH12(I4O3)2,2.06877594001864,2.41416831434761,2.29936865030382,1.432,10.7755298407557,6.7264585264522,9.44867833366953,15.3020935115283,0.171185442927759
mp-28005,As2(SO4)3,1.60718820304282,1.73278088055011,1.66077612579179,4.5992,12.6112595382699,10.4087495297909,21.540824841509,6.17164127449773,0.208454930119938
mp-643036,BaHBrO,1.78866456329855,1.83367900953248,1.76334215908314,4.2077,11.9098741764906,9.12579561584042,2.86984108790597,0.390559318469455,2.90888187239264
mp-560656,CaTeO3,1.95268750700157,1.90277485268226,1.90277485268226,2.9312,12.545406298935,9.02712511656315,38.5875201924074,73.3815144366413,0.039542524617676
mp-23281,SbI3,2.43450408707811,2.48586369497605,2.15891437764447,2.2064,8.44584081098686,5.09001753270099,4.09661867398514,2.00909592299699,0.741840069131578
mp-12787,SiO2,1.53306950918737,1.54646817620021,1.54575737423439,5.857,14.8164573887999,13.3176906701184,7.68926464189131,0.522170106492463,2.04513618287202
mp-4190,CaSnO3,1.98009846977366,1.99008274702335,1.92761031072154,3.1998,15.7393082345721,11.0819628233042,3.91810452788342,0.391419015418065,2.81003234869766
mp-554610,PrZr2F11,1.56796908132782,1.55500598069589,1.55598633991433,5.7711,12.1578848660713,10.7851071431466,11.5129502303777,33.1734892632085,0.117003262379775
mp-720407,KH(IO3)2,1.80408875058851,1.90689810425203,1.84910169812263,3.3878,12.0207888637268,8.93516802777285,32.006063109418,2.38624233579712,0.450313000736258
mp-30197,K3ErCl6,1.59056225278987,1.5914298225181,1.60061501617347,5.1968,11.6502595749304,10.0853163750251,62.4766302702303,0.463555147633258,2.17324661764969
mp-19956,Ba2InO3F,1.99630292040061,1.99630292040061,1.92354608730854,2.5449,14.4711467920426,10.1606443438379,3031.05512357515,0.459667112418993,2.17581729361724
mp-30158,Sr3Ga4O9,1.80940452635667,1.8253157288535,1.82703589455708,2.9482,15.9086196392143,12.0266541578214,22.1648193962954,0.380464216735371,2.6734846142753
mp-19703,Ba2CrO4,2.0684700505446,2.11011788770201,1.99963817227017,0.5464,3.82267344543744,4.60284949433471,5.62975232334269,1.31969116888334,0.935380751405979
mp-29251,Te6Br2O11,2.34327978696527,2.399445906871,2.34572330209682,2.5167,12.459608456242,7.50108757135294,3.39667807379124,1.10347342644569,1.20063463652901
mp-611316,AsN(OF3)2,1.40642394746392,1.41960369117582,1.4379779066453,2.6776,7.99160355237021,7.93852321194477,68.5370904121708,314.784262103014,0.017767418706451
mp-16595,K3DySi2O7,1.66555520172704,1.6655552917871,1.66063139498204,3.7064,13.6553982431273,11.2917270465531,4.34340953828474,0.5583292804093,2.02129165034562
mp-31039,Rb6Te2O9,1.65994200802317,1.6560994022099,1.67301720851879,0.8487,9.23880692015312,7.64391174480459,34.4631299628676,0.899188333667188,1.14113058993791
mp-550805,LuBi2ClO4,2.3772731290283,2.37731513687185,2.23745445316771,1.6364,13.6128870922292,8.28732921363475,1.51855671680013,0.306892708078661,3.91698779643548
mp-15750,TaAgP4O13,1.77380131074481,1.79032349590793,1.76531917510687,2.0967,11.2252824696346,8.68937794199098,94.1408830625234,11.7445066698248,0.095768567829956
mp-11718,RbF,1.43543118609009,1.43543094574417,1.43543121395628,5.5634,14.2590198345453,13.9827063257497,4.76057858574107,0.495600899585689,2.22781109319264
mp-555812,NaSr3BiO6,2.01031587816442,2.00964183873644,2.01094649605602,1.9257,12.3869543996181,8.54956908913663,3.88036151981097,0.49172440302808,2.29136743945014
mp-558272,Na3ThP3O11,1.70454116700067,1.68138225576458,1.68771560400442,4.9799,12.9852522772887,10.558374593545,12.9739648893909,360.521889874607,0.079851196654113
mp-558267,NaLiSiB3HO8,1.57325951133308,1.57105860489035,1.57486217809686,5.2406,15.1426035979508,13.3040495475304,19.0119598126188,0.608514127673012,1.69594569004404
mp-541013,TiI4,2.66318890054761,2.3689789235027,2.29860989948273,1.2229,5.58361878534886,3.2716258096757,3.25751318225847,68.3797137853583,0.321606861389612
mp-7476,RbDyO2,1.96031711465263,1.96496735850752,1.86136777397698,3.6734,13.3252414292507,9.54524730518704,2.36910187997774,0.592728754170036,2.10921323262309
mp-554229,CsAs3O8,1.8139908792494,1.79447932281205,1.83469032809354,2.2393,12.7953058595429,9.70463393434795,4.30148120688021,0.537562400681759,2.09272721055292
mp-13811,Ba2MgUO6,2.08200686117986,2.08200657779941,2.0820067819294,2.0711,9.12534989236114,6.10794346758766,5.45871701045662,611.768160487951,0.184827836007246
mp-572551,Cs2U(Br2O)2,1.68859664810753,1.74379326756356,1.73470629214285,1.9417,6.09522716390069,4.86506646611481,17.0674517567649,585.075382685335,0.06030023619653
mp-11715,MgSn(BO3)2,1.86635445722403,1.87901397014498,1.77911731203988,3.6819,16.9526038340139,12.6775951702963,6.09521761769657,0.869004049474279,1.3148056750031
mp-4396,Ba(NO3)2,1.56230769696625,1.56230769696625,1.56230769696625,3.6154,11.0781521367264,9.80841625875893,16.6246253365483,10.3683328030091,0.156599252937735
mp-23902,PH3O4,1.50695680429135,1.49975677361364,1.46059443036046,5.9151,14.7362147780362,13.8008232807067,8.71277232472514,0.575046796983595,1.85376293622736
mp-23178,WCl6,1.78925827090445,1.78925824575437,1.84084877977524,1.7483,6.40650862241181,4.87949995377937,9.3050165391674,5.73151432894043,0.28194287130414
mp-12171,K6MgO4,1.78606424296552,1.78606422896826,1.79620104387009,1.6784,11.0226267592292,8.47238413346879,4.64664379049717,0.502585211695246,2.20492143868915
mp-2943,KY3F10,1.55240286974741,1.5524027022651,1.55240287296823,6.9361,13.6341436629132,12.1588593076743,20.5234428258162,1.01478309805149,1.03415702677752
mp-643708,LiH2IO,1.78125412841627,1.86261155102184,1.83551309720198,3.7786,13.4089047174638,10.1058264605639,1.91447780446463,0.364567050029701,3.26531529755148
mp-572526,SbBr(OF3)2,1.51053378644769,1.6255739017344,1.55180632167806,2.0307,8.22123813306999,7.27721354991671,38.213672832038,215.581619985793,0.030807258361093
mp-545598,UCdO4,2.56171637579182,2.17130026021276,2.16333746558414,1.9906,9.20878459097095,5.66985478029705,5.30903738890456,23.4165808074966,0.231062846109449
mp-13643,Er2Ge2O7,1.93309617453452,1.93309617453452,1.92286871366716,3.7279,15.3035053607334,10.9581755864231,22.9584487572499,0.435775579971132,2.33831610098085
mp-775430,LiBi3(IO2)2,2.62203792688054,2.62203792688054,2.43561631420058,2.2534,12.4020348456515,7.00349963179063,32.0276740959309,0.55571525122033,1.83070573260272
mp-765640,Sm3Ta17O47,2.20321488511675,2.39331887971495,2.21691226484045,2.8711,13.3737249255971,8.31674735051446,607.919889208168,21.5273124063562,0.048097570664323
mp-778602,Ba3GeO5,1.95719448190516,1.95719448190516,1.97784241030472,2.9102,13.0671542903048,9.20832402772883,23.0093452172802,0.404347200024091,2.51658271100026
mp-18256,Mg2B2O5,1.62952335669054,1.68862157986921,1.69489205555988,5.1953,16.0242864721962,13.1919775158539,27.5212832354746,0.501109600213838,2.03190694204214
mp-677627,Li3Nd3(TeO6)2,1.96407601431309,1.96407578265198,1.96407592266694,3.1317,13.8096168761325,9.73153718465873,5.43390302167471,1.33522533437609,0.932967041564527
mp-504908,In2TeO6,2.15607715307222,2.15607726438549,2.11535850153112,1.0717,16.1966604777263,10.5774480901592,19.2406520336816,0.215448759388968,4.69344814913208
mp-567297,CaU(MoO4)4,2.14271251221437,2.03061014229714,2.29625028252584,2.0319,10.050362717555,6.52720271126278,11.5188400340042,220.278202356417,0.09135401083906
mp-554084,BaBi6(PO5)4,2.08730535619492,2.09067433379759,2.12044981548727,3.5041,14.3277007483171,9.5210548867436,7.39596635081533,2.72684565735179,0.50193292864963
mp-19158,Mn3WO6,2.22097886977792,2.22061044985382,2.22131950200776,2.1934,21.6797883744962,8.73118436600739,4.22116420123692,2.7734116327562,0.59746821217002
mp-771321,Cs4GeO4,1.798623265167,1.81806768850887,1.79064829042445,2.5878,10.8136510170975,8.25381183034559,18.2791533709382,0.374717194646995,2.72338637365496
mp-5977,Nd2Zr2O7,2.21010576443753,2.21010564227143,2.21010580063489,3.3252,13.7743019059596,8.76237923124763,1.61396299238513,0.865399870132001,1.77512807933742
mp-14128,K2HfF6,1.50017198014094,1.48173798628502,1.50495588639667,6.5447,13.4403366143919,12.5208468228275,35.3528774581044,10.0083843975144,0.128202466929647
mp-667,Tl2S,4.47701338952655,4.57784572588461,4.32196319628014,0.8645,19.1216403343194,7.18082995516842,0.699113834618694,0.37745179781529,4.07972713354617
mp-541459,KSnPO5,1.68278509323086,1.71409664838363,1.67482571929141,3.0232,14.8175122426852,12.0528989820765,35.381590800476,0.493793273897199,2.05340225119793
mp-1943,GaSe,2.78075888742624,2.78075851162952,2.12367572854238,1.2446,15.3569200149688,8.66725686337112,2.12140716276654,0.185323623597351,5.86735137989853
mp-772185,Li6Hf2O7,1.86240862057713,1.88519371683655,1.91375041476155,4.4135,13.5952795426054,9.93664075214268,4.48121464286878,2.50836804149893,0.621819362955075
mp-554445,Bi5IO7,2.39621548905769,2.37948558306202,2.36693510895419,2.7814,11.7037613317025,7.002671378096,3.11592292008818,1.89459733571731,0.848748840771686
mp-2173,P2O5,1.63940253141198,1.60973794451147,1.60530774619697,4.8414,14.7058650050525,12.5254868045852,20.1971593663637,0.727103468793999,1.42483199193242
mp-31034,ThF4,1.59180977820844,1.58102658105422,1.59559194658283,6.5688,10.6630026820892,9.26090612012582,24.9152790140006,43.212527692508,0.063277451804981
mp-553278,Nd4Se3O4,2.44643660453321,2.30902017314704,3.37346410978389,1.4082,14.6771743048488,7.9292163887633,1.50831561907907,1.73204860226019,1.24034221604698
mp-27144,TlPO3,1.8157678293218,1.8157678293218,1.8085131157943,3.521,14.8617979958156,11.2781457425961,2.06403866996189,0.759500577560216,1.80114174023831
mp-569639,TlCl,2.01913809829838,2.01913826668705,2.01913805372491,2.5976,15.9255622846916,10.9493774857472,0.566570822782208,0.38837119882943,4.33986063639872
mp-12237,HoP5O14,1.63136446571574,1.63140257447388,1.62936197022025,5.2931,14.6124790296438,12.3430673086752,11.8802514528011,0.613604914453933,1.71388645583325