MP_id,Formula,Ref_index (1),Ref_index (2),Ref_index (3),GGA direct band gap (eV),Effective_frequency (eV),Average_optical_gap (eV),effective_mass_valence,effective_mass_conduction,effective_mass_transition
mp-559786,NaAs4BrO6,2.13754459134775,2.0468703158725,1.82680512644343,3.1299,12.2693831466113,8.49300807030371,35.8236964884899,1.66065917012117,0.630085006331515
mp-3317,SmRhO3,3.42673764534141,3.59287297855073,3.24151939528364,0.733499999999999,9.94597138916177,4.51370453096205,2.93048235077044,69.1714194587679,0.355697589547482
mp-11189,Li2MgSiO4,1.63808902688468,1.62337915780633,1.62649114046158,4.6771,14.8158907903461,12.5263008828143,18.2039146849428,0.501935563394031,2.04722084130696
mp-554191,Na2UO4,2.25010958177596,1.7096852809801,1.86195017119149,1.8868,7.60853649772707,5.4203151856833,4.37383223445889,49.0066416984357,0.24903785207036
mp-8180,LiNO3,1.65513999105816,1.67787472416745,1.48603121434242,3.3064,11.9471370485888,10.256807523975,17.1796104979424,6.26323919359073,0.217870330447146
mp-542832,Ba3Lu4O9,2.03103197660697,2.02691211205617,2.07688472236665,3.2813,12.8391447735365,8.72928859226666,2.5232107827003,0.582076407334132,2.11430795099328
mp-3405,NaAl11O17,1.69984931685135,1.69984931685135,1.64996471477423,4.491,15.661412229304,12.7965139090935,36.1428763068617,0.394430726407771,2.56296741007607
mp-21099,K2Pb(SO4)2,1.72247591274885,1.72968424864193,1.6551717040839,4.6132,15.3634767750816,12.4079504270327,8.18292362042391,1.23350943424601,0.932900767214174
mp-3163,BaSnO3,2.2645739246048,2.2645739246048,2.2645739246048,0.8911,16.1859737661895,10.0897852348429,2.01971371693466,0.139184923474085,7.67980588310582
mp-6653,Ba2ErNbO6,2.20805720487491,2.20805707353773,2.20805698522479,2.8512,12.8527978305904,8.18253417257084,2.31109311015588,0.750118722989804,1.76581798155058
mp-28216,Lu6Ge4O17,1.88250414342174,1.88650507022907,1.87760834041607,3.7403,14.433911767171,10.5751305231464,39.0190995170924,0.42692769560617,2.36794547647648
mp-20015,As2PbO6,2.13057273051168,2.13057250522013,2.12228606931299,2.5444,15.8355139179512,10.4025541393537,0.807822720779564,0.364483178571036,3.98150620353242
mp-566951,LaSbMo2O9,1.93727080450824,1.94441489656915,1.95729971900064,3.299,11.0081431071817,7.82119372906974,13.5682668469909,4.52294337756219,0.294796343960236
mp-14133,Gd3Al5O12,1.95018272733608,1.95018264785635,1.95018266836725,3.7024,16.5556872470292,7.70178543167569,7.3099171860675,130.279750797022,0.144476245337076
mp-29468,Rb6Cl4O,1.58301701822817,1.58295650287682,1.58308075599446,1.6658,9.98359244244348,8.70997717398003,78.6622174090581,0.436845572018051,2.3018510434389
mp-8470,NaPrO2,1.98045308452384,1.98105206392967,1.98884540625962,3.2337,13.1849864852244,9.20992237805563,21.796740436089,0.417676149839801,2.44007784974178
mp-28166,K3BrO,1.72721079489447,1.72721079489447,1.72721079489447,0.889,8.73663468923072,6.953730181916,2.12423680902422,0.382848190929271,3.08275867923177
mp-4819,MgGeO3,1.85906580303119,1.83030597168889,1.82916413150925,2.6682,16.1083409941357,12.0585183683983,4.96220498604552,0.365439853917185,2.93795172966676
mp-4417,Al2(SO4)3,1.58129978182507,1.58232700792219,1.57644015109994,6.0309,15.2557027818517,13.3375531951186,15.0566810950325,0.595560564431893,1.74550605477571
mp-18220,LiAlSiO4,1.60391399395354,1.6097183356103,1.60218144727743,5.134,14.9818432390365,12.8715519854939,7.32476914751641,0.497363069490283,2.14712671813555
mp-17487,NaErGeO4,1.78185834173202,1.82111627580449,1.83001661467868,3.7407,14.4919118485377,11.0111443466727,35.5172633034863,0.428509683778769,2.36182487029156
mp-18781,CrCdO4,2.02172674711495,2.06602907288353,1.92664668271066,2.3162,10.8128504276575,7.48126381054997,1.75993552464209,3.64275016721853,0.842720498936662
mp-5632,DyAsO4,1.87243762512934,1.92836363272076,1.89036226686844,3.6319,14.6696265860927,10.6699051593154,3.86326833769092,0.460478660136344,2.43050148162896
mp-13998,Na5AlO4,1.67354074046615,1.68001674098802,1.66756476635842,2.4192,11.8437014345814,9.73402329605488,67.2264211797776,0.37630926039231,2.6722638669567
mp-15066,LiTmSiO4,1.74624849606234,1.77201770589348,1.78835610268201,4.8409,14.5990767200736,11.348520424405,41.1633348195461,0.504587589270682,2.00610994414093
mp-556986,Er2B2Cl2O5,1.70076453102715,1.69566910687197,1.68562858305144,5.0821,12.6388574259765,10.259275365898,31.7931282779892,1.37830475466048,0.756982286654948
mp-5116,K6Ge2O7,1.62939422792644,1.63207910653865,1.63712724917766,3.0843,12.709511634069,10.7205017441487,33.5797578613039,0.460391780089885,2.20184295181903
mp-30962,K4Ge9O20,1.73336144816942,1.73080848738386,1.73111784982999,3.0841,15.0351067669922,11.9353583524892,166.344937494564,0.432413837871101,2.31861104624963
mp-7703,DyTaO4,2.18917002309094,2.14532358631513,2.12538366889369,4.3655,14.4616567514447,9.40409093757731,3.1812305493055,2.16222496983151,0.776830334145952
mp-6712,NaLuGeO4,1.79145856217776,1.81587839625896,1.83574253641408,3.7497,14.7010371272063,11.1501998596193,33.7533313600538,0.416603621145071,2.42998990242697
mp-14734,CsCOF3,1.41578406898792,1.40258089249783,1.39752567418277,6.1514,12.6057473674953,12.7131923219152,82.3146271493263,0.562901840775543,1.78865717825419
mp-559755,Sm2(SeO3)3,1.89150667194171,1.94111801547459,1.92867573998327,3.8878,13.0613605516937,9.39381155244833,10.0899696064838,3.54273520405308,0.381376105956534
mp-13755,BaNa(PO3)3,1.56409899622754,1.59708933688758,1.58806098434537,5.3054,14.1502231559791,12.344504902167,120.273489575498,0.536508642821597,1.87221725580063
mp-6091,BaAl2(SiO4)2,1.61875699844047,1.60352864645444,1.62111230641187,4.8301,13.9377125002422,11.9004820804523,39.791416356201,0.456039980228567,2.21792124933843
mp-559224,Sr3Al2Cl2O5,1.75708665694097,1.75135246024323,1.75089132158452,4.2168,13.2078896314788,10.3579243785736,14.4089620973117,0.39725460755943,2.5866785364087
mp-8059,SiO2,1.47670221439531,1.47670221439531,1.47670221439531,5.5903,13.780354598228,13.0382730673414,3.21721233493916,0.56240926678501,2.08889268662562
mp-9205,KSeO2F,1.60560841739199,1.60385809534385,1.48980620216188,3.3573,11.2981029273065,9.97352699983384,5.49342823261848,19.2108632126379,0.234089571866846
mp-17672,BaLi(B3O5)3,1.56732975790036,1.56604119358336,1.56939661653771,5.672,14.3279700674122,12.6376051193561,28.4944892076249,0.631719263406907,1.61807615216495
mp-18812,NdVO4,2.00089926782934,2.09425550255932,2.02909401704307,3.0209,11.9999989314802,8.17111145504999,4.87751736429229,1.203005815399,1.03627351220857
mp-27622,Na2PbO2,2.11701026922403,2.03698561114211,1.96693931782351,2.4087,13.2328990646154,9.01490447634985,7.13935264335695,1.3638092908467,0.873309070621354
mp-21879,Ba2CePtO6,2.65241910338468,2.65241922779941,2.65241915051147,1.4207,8.34877613204635,4.58552646519071,1.8811251441331,917.120591348977,0.532687112258542
mp-14485,LaTa7O19,2.3523646677333,2.35236459546559,2.43257880036804,3.128,13.3682803732847,8.00343116173616,12.0264876595405,3.44488970736719,0.373434851905865
mp-4103,Sr2Sb2O7,2.02871902933846,2.01436148444116,2.02228220335343,1.695,14.5122034421572,9.96609851074654,3.25639068582221,0.323738500673107,3.39600126411378
mp-27480,Sn2OF2,2.10538170410973,2.08354776043171,2.07336675723327,2.7636,15.6277832923408,10.4367239598134,1.71423041883888,1.13059691412441,1.46784067745552
mp-6525,NaSn2(PO4)3,1.68163504364056,1.68301043668778,1.67522436407784,3.3604,14.7285054065656,12.058381588095,12.3201973758161,0.523131058237329,1.99273440157806
mp-18051,La2TiO5,2.17127774593671,2.10135709721123,2.11773214784118,3.4327,10.7532684522573,7.05740269446497,8.08392314517034,34.9421078322027,0.152321079874663
mp-566452,K8Hf(MoO4)6,1.66356326600463,1.69626570737016,1.67382347336868,3.8595,11.2006951734493,9.18182949256075,98.7688659673182,37.537636789746,0.036764577548984
mp-579552,La2CO5,1.93443006335199,1.93458718852369,2.00574434562334,3.9331,10.7875792008959,7.62228746641087,3.47786247124518,3.27223025541632,0.593134900109545
mp-504748,P3Pb5ClO12,2.06472304195987,2.06472310734394,2.06350282529489,3.595,16.7817011745204,11.3162155354348,2.09631298557088,0.705219990317858,1.89502524454355
mp-19269,NdCrO3,2.36238136421705,2.36525834741155,2.33114571831106,2.3395,19.5670328924347,8.81345283873179,3.19484690348475,3.13872710001875,0.631604536300088
mp-556122,BaCa(PO3)4,1.62349046501666,1.59544594079524,1.60165568085029,5.5372,14.1695418452433,12.1605312919567,67.6893125692768,0.514327866599958,1.95905846626795
mp-557662,Ca2Mg5Si8(O11F)2,1.64683309415375,1.62909017859663,1.63338817492965,5.0192,15.1335949483056,12.7355525182914,74.1874919375523,0.472722215291195,2.12888660810035
mp-17868,NaAsO3,1.62857985066745,1.68352222735549,1.64526307926726,2.8843,12.4086147402052,10.3353159369548,85.4674952946832,0.562803879025384,1.78851824313406
mp-561125,Ba5P3BrO12,1.76211468412246,1.76211479762245,1.76347599643432,5.0184,13.6403574151917,10.6404937166034,14.2755255387236,0.495570640132049,2.08792575663255
mp-17382,Rb2Si3SnO9,1.66436036061906,1.6643603576149,1.67367125804323,4.0754,14.9658753411161,12.3479061793119,3.5756199183163,0.492319561208384,2.31087281396579
mp-27823,SmClO,2.09879248855145,2.09879248855145,2.03373636197025,4.8762,14.4927986399351,9.72042131078205,2.44340606762425,0.582798829497596,2.12512270256855
mp-17350,La2TeO6,2.04325729167915,2.02704511543281,2.03863424625409,3.039,10.5661092624461,7.21056698131478,11.0726860505331,0.792621343522253,1.35194880079472
mp-561076,La3GaS5O,2.68256543629415,2.67560615562156,2.64206650748992,1.1965,10.2442167506894,5.60310384913855,1.28480303617777,1.06006668342547,1.72166630060964
mp-562102,K2S2O7,1.51412186101384,1.49497471884979,1.50096463982334,5.2394,13.7905441461265,12.7678046356405,110.880016566179,0.657795990218421,1.52924693611907
mp-540659,Ba(BO2)2,1.67841630711811,1.6840992755773,1.56309095384754,4.606,13.4674862823909,11.2936422160485,15.0094479816215,0.606510751466962,1.71540009076819
mp-23013,U(ClO)2,1.85618084517646,2.4215213709567,1.94213252894853,1.7154,6.15676312215539,4.13600486913723,4.04361920768729,139.167052215473,0.254488816342927
mp-510030,Pb3(ClO)2,2.21534810582897,2.15361369795049,2.17416970358802,2.4598,15.0289271113567,9.66754245169879,3.60818078256551,1.74071400390091,0.85162488450438
mp-2940,LuPO4,1.78524415417052,1.82845075952294,1.79820610053464,5.9558,16.0688158136606,12.2550051472028,4.23581338352729,0.483647159222587,2.30370518645821
mp-566266,Nd2Mo(SeO5)2,2.00519461648988,1.99184589263326,1.99496726288929,3.3273,12.8794670323405,8.94071527518192,25.1653355286994,26.1490228975289,0.077979547872133
mp-13744,Rb3GaO3,1.74061726982126,1.75993338226195,1.75032441278753,2.4167,12.775518382944,10.0348041475984,21.7239660339874,0.379526203156952,2.6808962953572
mp-6105,Pr2Ta3(SeO4)2,2.71689041553023,2.4628128816457,2.46669500141383,0.9498,11.8531253174427,6.7164635781797,34.155927260344,12.5394372589419,0.109025890655511
mp-30088,Ba3P4O13,1.6534522642036,1.66048185476385,1.64993739881245,5.1231,13.9654372276308,11.6159910321348,52.4101488895198,0.512501870268036,1.97029266560618
mp-566655,Na2U(WO5)2,1.84092041653082,2.20407025523235,2.07531809128143,2.0023,9.56522801714334,6.51689103809033,4.39143682622997,4735.47253186578,0.227927074632095
mp-622195,CsSO3F,1.45499857388246,1.45779169636817,1.46508464260602,5.1506,12.6269732983963,12.124571668833,128.666068624304,0.56395658335516,1.78095820187311
mp-556735,Rb2Bi4O7,2.08528479829495,2.14756871834174,2.15129899827988,2.6039,11.6575345123503,7.65724514939341,5.72924669205609,4.44400217597895,0.399565408586046
mp-3540,Li2SnO3,1.95227602044383,1.96045197849884,1.83609279994231,3.2443,16.0543529384982,11.5693331272753,3.58889304111958,0.438013009378134,2.56167466109302
mp-622491,Pb13(Br3O5)2,2.27316773028301,2.33477600210384,2.32977759668171,2.0126,14.5538505758419,8.91691891478327,8.71239878785423,0.493383952813414,2.1415980128325
mp-555604,Na3Dy(Si2O5)3,1.58196550531293,1.58299427036234,1.58238587898148,4.507,13.8617499839703,12.0982246773881,6.53459567131519,0.519169987383922,2.07918306025874
mp-19068,TmVO4,2.03267827508438,2.11874594276898,2.05952636302622,2.9597,11.5247867521806,7.751772945513,4.55893491705639,1.29414201978057,0.992062199119897
mp-18620,Mg(PO3)2,1.5766683703303,1.60384213063506,1.59835365923815,5.648,15.1730562956947,13.1462205702884,10.4317935472178,0.534894462529558,1.96538846613413
mp-29690,Tl2Te2O5,2.12773194975307,2.17797448561731,2.29393001636929,2.7856,13.9082020034067,8.88206643389439,2.80103719764502,1.3961387956592,1.07327177531174
mp-559379,SbTeClO3,2.26922866190254,2.13124465981736,2.01160677320395,3.2319,11.8010486697237,7.72265251800986,6.32582514246841,1.4614180614138,0.842349039388339
mp-27358,Se2O5,1.55335950442903,1.99706723722563,1.98421572163916,2.8874,10.727014092896,8.00802969313535,5.52208431442584,10.0812866216873,0.280284729566047
mp-669353,Cs2TeO4,1.64420525786776,1.65956468689834,1.63771982951908,2.8284,10.5780908806545,8.84047840345035,21.7963772800817,0.688465577764944,1.49838462824816
mp-4086,La2Sn2O7,2.13348105452099,2.13348110607992,2.13348084594167,2.6649,12.4322436194202,8.14833873383697,2.08677226204759,0.362403967576688,3.23856066546423
mp-13039,Tm2C(NO)2,1.88816866301716,1.88816833465663,2.21296132817544,4.0321,13.9707673151099,9.70218188107808,2.92016495479255,0.735280718942709,1.70247119085399
mp-559805,HoTeClO3,1.91200265951698,1.84933212809382,1.95101714754125,3.9162,12.154143501632,8.81004336466999,6.04853353733765,6.30797952959385,0.323858697163858
mp-560535,K4Sr(SiO3)3,1.635834218373,1.63733894169778,1.63885918858211,4.1821,14.0869087765215,11.8477380117995,106.277028079565,0.470921598369909,2.13290509411744
mp-22598,In2O3,2.21539344361222,2.21539328336979,2.21539341427206,0.9358,18.5963801282333,11.8062349507167,6.04871825589915,0.170431108315559,6.03279771339401
mp-5525,KAlO2,1.64454217033191,1.64415027293736,1.64430676578308,3.9994,13.8271867476468,11.576882775713,8.10581396463339,0.424302342572865,2.48017823025594
mp-19957,LaGeBO5,1.91000769893736,1.91000749474969,1.93888821751023,4.0234,11.9585427568478,8.60393299076224,217.698694492619,0.660072776016508,1.51957796763556
mp-7977,CsSmO2,2.06070789293388,2.06070750229139,1.99346470748795,3.0012,12.1352049862063,8.27428587541615,3.21828028941289,0.542406096546368,2.15436205031768
mp-556639,DyNbO4,2.2836096141854,2.17903454309472,2.18869645908244,3.5853,13.3000501843369,8.43828363316299,3.99572989996069,2.56980745198622,0.639401379307496
mp-3635,LiBO2,1.63912549550057,1.6363947384418,1.48208102679982,5.226,14.484839995205,12.6118443567928,6.67500886060645,0.751125229564314,1.48114845716395
mp-616175,EuSO4,1.75982838936074,1.76169332745515,1.78580045637804,1.2814,10.2102080740763,5.84687888848092,800.794030941113,0.468407741548672,2.13614088828674
mp-3584,NdPO4,1.92143333477901,1.84106399399912,1.84090159976029,5.7256,15.8801983938561,11.7183509211678,7.14577910336848,2.41707089258075,0.553666654541669
mp-552008,DyBi2ClO4,2.39183936751614,2.3918238689335,2.23751922896765,1.5994,13.3448814624203,8.09663646856152,2.73357885289154,0.319341237160405,3.49726730080799
mp-29711,Tl2Te3,4.24271692197347,4.91415157885876,4.41147354066643,0.7082,11.254935408369,4.18467633164149,0.636483542449314,0.277932675278257,5.16912617978792
mp-560132,Nd2SiO5,1.98312002914599,1.94806895668506,1.94185382560068,4.8544,14.7604030609676,10.4321581406011,5.72351626410611,0.995607859701208,1.17912928660771
mp-25076,Nd2MoO6,2.13704974673029,2.13704302249627,2.13383021583255,2.7685,12.7931719377139,8.37653803533105,38.4609533358636,21.7158467915233,0.072049716565264
mp-4790,ThGeO4,1.97977446947878,2.01347185974873,1.99106769347504,4.0414,12.9597959877221,9.00677237676127,4.48720354910498,0.600890769831524,1.88705192187494
mp-560340,La2Pd2O5,3.07550075434879,2.54708148083252,2.54708148083252,1.2508,10.0843238322141,5.42700418087209,5.92336897148474,1.55238854907814,0.812991471556149
mp-505299,Ho2Mo4O15,1.86513042171318,1.91434912437622,1.89349294955117,3.3825,11.5521775749619,8.42734045936835,16.4797570224617,4.29289359435095,0.293623619859061
mp-16036,Tb2TeO2,2.70684417541904,2.70236546936198,2.47314001827636,2.1518,13.7728304252038,7.62055938278086,1.63282141983143,67.0000080871287,0.627362217061596
mp-551873,Ca4Bi2O,3.07180513542119,3.07232992857213,3.1108206168148,1.0912,9.64615919618206,4.72342039978113,0.517503589175049,0.530512330209862,3.81732407367535
mp-542514,Ho2Te4O11,2.15117242916508,2.31609057033614,2.07897228937761,3.3597,13.5366261702457,8.70411682670955,4.50885487205313,2.04691637528511,0.710325546389905
mp-662535,PbSe2O5,2.05515121584763,2.10165617787496,2.06113762519634,3.13,13.5358914987481,9.09557424601979,2.98976580468479,5.95204520805034,0.502483835220591
mp-505707,Tb2Mo4O15,1.8580949652803,1.91132235376453,1.88952553039116,3.3895,11.4822624435146,8.39557309015821,17.1780363583638,4.17570152761209,0.29769458943413
mp-13660,Ca4Sb2O,3.22748790392776,3.22387400188035,2.94599494059308,1.1761,10.3195632802665,4.99611311064892,0.583681047356186,0.508093323636131,3.68140684319223
mp-4547,La2TeO2,2.72054233380038,2.71645488642827,2.50408464114135,2.1478,10.2633907348837,5.64604403179678,1.0914642970486,2.35619840875389,1.34061285234133
mp-9799,Yb4As2O,3.22542113684399,3.22043491628072,2.88004437813031,1.1302,11.2200118371122,5.46294903894062,0.714749444205718,0.408084367066395,3.84956535730492
mp-558224,Dy2(TeO3)3,2.1366024852555,2.10601500944319,2.14487643700051,3.2107,13.2311680796804,8.68699606008962,52.1299630132012,8.22971979112504,0.140693645787624
mp-560082,Ho2Ge2O7,1.93532142291662,1.93532142291662,1.92481701727723,3.7385,15.2996589290662,10.9444006127649,20.4807271854115,0.442066069444738,2.31093169439038
mp-30313,Tb2Se2O7,2.07827092555326,2.0145231619418,2.0145231619418,3.2221,13.7662427029987,9.39660356620045,19.0411295078739,1.97004024569909,0.560121736102467
mp-31418,La(SbO3)3,2.08390648062719,2.06943929120909,2.10023111585368,1.4864,10.9697186324135,7.33476303111089,11.3323917159952,0.3713031850684,2.78145949051102
mp-29833,Bi2(SeO3)3,2.15041345326893,2.12019139937884,2.09974050539585,3.443,12.7380393384963,8.38249728202012,17.3977489284197,2.53855347029957,0.451403828213577
mp-30198,Ba4Ga2O7,1.96865159182624,1.9771902184666,1.96454625804535,3.2427,13.7461784466357,9.66007074932285,13.9146169926107,0.389628773354577,2.63841243647896
mp-31416,Ho3TaO7,2.14382471764834,2.14257281556544,2.09719852422225,3.6775,14.1117052178548,9.26995716861527,2.46034552590756,2.23836645752692,0.853201347974992
mp-28990,Bi2Te4O11,2.34683670075274,2.36185011378792,2.30804552164813,2.8769,12.8395055043956,7.79404329340129,9.79861200168808,3.95840119784183,0.354682518392158
mp-29887,Pr(ClO4)3,1.60373471933484,1.60373476298296,1.65389067050999,4.9284,12.9332377738244,10.9988023211535,33.9560751483845,2.02201856459617,0.524005112213242
mp-31355,Sr3Tl2O6,2.38851262923184,2.32261749756605,2.35360100696783,0.7764,13.3291883117879,8.04649117888724,2.54794976306415,0.366731393301865,3.11926379071471
mp-5459,Nd2TeO2,2.68826457589278,2.6844092236468,2.48657927281637,2.1653,14.1050418728698,7.82225660776069,1.10831417154073,6.1130017877273,1.06585699122906
mp-18662,Ho2Si2O7,1.81540697365632,1.82289189202212,1.80986597293833,5.0297,14.8324093595429,11.239789930814,46.9385648304037,0.459557563501795,2.19731040966574
mp-17009,Ba3Te2O9,1.9448302625165,1.94483014939609,1.96289073562438,2.3646,12.780160982905,9.06114748267045,2.86426641730498,0.49355181511949,2.37525925219312
mp-558521,B2Se2O7,1.66724083143378,1.85889667276048,1.85013234391489,4.0024,13.2015416638945,10.1326571491689,5.36447074613014,6.36387319907602,0.343548688211438
mp-31008,Na14Al4O13,1.64964506788582,1.64958838805321,1.66446059430676,2.5301,11.9547553980862,9.94394546853869,33.5427729605722,0.359206671627537,2.81372533934454
mp-29222,Ba2Si3O8,1.66215715261825,1.65529946233302,1.68415974598611,4.512,13.6027709169083,11.2250607014995,56.989131773093,0.484238526809816,2.08264517804858