MP_id,Formula,Ref_index (1),Ref_index (2),Ref_index (3),GGA direct band gap (eV),Effective_frequency (eV),Average_optical_gap (eV),effective_mass_valence,effective_mass_conduction,effective_mass_transition
mp-556601,BiBPbO4,2.20008918001067,2.07745151567973,2.21414350935074,3.0025,14.404059574172,9.32766626631538,2.08686805452553,1.23031398596012,1.29198762357153
mp-10560,Sm3AuO6,2.12064909874312,2.44793949067374,2.27266817639531,1.8361,13.2705405226716,8.22485307303237,2.52267661661233,3.51173554500865,0.681163839660989
mp-27575,Te5(O2F11)2,1.46497834113682,1.46075335015875,1.425551370523,2.879,10.9320990506362,10.5782680634769,1157.50709260726,1.84062824459544,0.544156686058922
mp-3334,Tm2Sn2O7,2.08552758552842,2.08552756395115,2.08552766944004,2.655,16.224342027422,10.8436874212312,1.81923246183713,0.332426074071575,3.55786998207484
mp-3953,CaCO3,1.68329929899587,1.69822965466983,1.56089429174432,5.0828,13.6235959325798,11.3834427126626,4.12679590592692,2.25749699204777,0.685287218889166
mp-28510,Li3BiO3,2.00091531554936,1.96703432354395,1.96903025116426,2.4973,11.367016588586,7.95603611282956,11.9732227067022,2.06984365758022,0.56664797965716
mp-565464,SrV2(PO5)2,2.12083263601822,2.05523856279508,1.95786778409575,0.4789,1.02430492474844,2.98956682872158,10.7128229713018,99.4349829382373,0.103402899954309
mp-27792,K2S5O16,1.50402948441844,1.46099901437338,1.46626939543864,4.5508,12.3546634550889,11.6854880321356,1556.6061840678,1.07631617928608,0.929737441277801
mp-557359,Cs2Al2Sb2O7,1.80320729812188,1.80320739239833,1.70555527614909,3.6924,11.9173203920733,9.25473669689232,30.4164026008941,0.989600520988957,1.04338576244304
mp-29525,Rb3BiO3,1.78516866149952,1.78516866149952,1.78516866149952,3.1144,10.3885163244868,8.00353854528717,25.8629161780558,1.68396884292877,0.632500615094282
mp-560193,SnSe2(Cl4O)2,1.71240170520821,1.71175864829128,1.72470955525851,2.7878,9.02846789360616,7.23201066833389,25.5393876138096,1.86129677044178,0.576415043931132
mp-16598,K3TmSi2O7,1.66330608127308,1.66330599109124,1.66168984470629,3.7556,13.8223873587525,11.4380404656355,4.01746786668281,0.551360966769381,2.06260686506945
mp-562613,P2O5,1.47031066445156,1.47021788861379,1.4704172979124,5.5426,12.9138012694869,12.2840131578284,72.2520663099968,0.777905600390832,1.29934345644991
mp-561356,Cs2UP2O9,1.62403584935801,1.74407905784113,1.72806856056118,2.156,8.3938081002837,6.79417394831313,10.0903982505293,3567.40150912404,0.099384432206263
mp-562072,Cs3SbO3,1.81592476165727,1.81592476165727,1.81592476165727,3.1104,10.0115754905059,7.58715063146446,5.2397988120095,2.39563390878225,0.608273072250063
mp-559234,CsLa(PO3)4,1.59501566449988,1.59071593944362,1.58890179998639,5.0496,11.604822969083,10.0644450306175,100.456998779884,666.485725671023,0.011454915247573
mp-558834,Eu2B5BrO9,1.77960584119068,1.82710528158615,1.83833356059231,0.8801,5.83013181412442,5.53804701782026,3074.14588771897,0.561928953362019,1.77990969483108
mp-9392,Sr4Al6TeO12,1.73291085748806,1.73291084017615,1.73291085748806,2.8525,12.9584148733345,10.2799974683271,10.5322652642686,0.385571959376442,2.68849593369605
mp-560010,Rb2Ga2B2O7,1.60597589645673,1.6369144510328,1.61773185664374,3.6746,14.651087788278,12.461748993305,32.9786832401855,0.504779437335493,2.0113858821134
mp-29506,CsBiO2,2.11506153811183,1.81420301510057,1.84494641927618,2.3561,10.4696107583189,7.5144209403445,6.21361054775073,1.0258856679044,1.13570451804104
mp-3439,SbPO4,1.86166563861505,1.82200562293315,1.97534654681147,4.3339,14.3355667293093,10.4817165255057,1.61219999523328,2.92050114645324,0.962677427399844
mp-13019,NaLa2TaO6,2.13885720888516,2.12179378357087,2.08794928099319,4.0693,11.4447464434654,7.5535373127163,5.56861651519574,6.60172406697158,0.331053400167152
mp-562490,SiO2,1.43895012769727,1.41720730664219,1.42116065242463,5.8147,13.3275050547129,13.1847799445977,6.96840103363759,0.605051032996065,1.79625809283674
mp-23582,KLi6BiO6,1.96115119253973,1.96676458682782,1.95832923176875,1.4216,11.4902532764254,8.10450719370518,2.18032483472313,0.534227092702963,2.33051038876426
mp-560354,SbCl(OF3)2,1.47508102828285,1.63927945146641,1.49144164820485,1.9497,7.79938565032676,7.04469531241373,25.7294573797459,60.1805852727082,0.055482612230764
mp-30949,Sr3SiO,3.83253078526448,3.87790859098045,3.3707378628425,0.4296,2.67553070841507,1.14846979451065,0.45643315674851,0.376467147255566,4.84717558632341
mp-556275,Rb2Al2Sb2O7,1.80999668507984,1.80999648065956,1.68281319818927,3.6881,12.1418775749127,9.44508583953405,6.1388999552639,0.914868394827866,1.25594902355023
mp-3782,Nd3Sb5O12,2.20140782682355,2.20140788133412,2.20140785635011,3.1591,13.4791180881927,8.60302107958042,5.46700360030575,3.33720889643416,0.482567159803629
mp-6760,Na3La9B8O27,2.19021759649584,2.19021769694248,1.87249035511535,4.0103,11.5209483026689,7.70403051946087,69.6077828015952,3.30835630259661,0.316631113574537
mp-3153,Na4Ge9O20,1.75738757250642,1.74982493981541,1.75074299084703,3.0621,15.0090529194227,11.7734791619819,116.275238907663,0.401403046014244,2.49986189664725
mp-15560,Ga(PO3)3,1.65681023053336,1.65282004162583,1.65776428963831,4.8881,16.1587121936864,13.4302774617775,15.8092372295511,0.575141725375852,1.80195604008946
mp-18958,UMoO6,1.90678481219041,2.15931436340335,2.13053281129393,2.2172,8.13004765794419,5.47940554532821,11.7353136946006,20.0647022986225,0.135051656292726
mp-550172,SnO2,2.22480922103447,2.15390412275013,2.15395467918896,0.8121,17.2419435720231,11.1060926090735,2.58268182643508,0.192490794991346,5.58224803621993
mp-558891,SiO2,1.50429055039244,1.50429045732531,1.50429042741088,5.6634,14.0855558242708,13.0312326674799,8.67145783617444,0.550747669826782,1.93103440063944
mp-554964,Pr7BP2O17,1.98025395593596,1.95958734176357,1.94793343572105,4.7073,14.6518679270192,10.3320947800268,23.2780986818667,10.2530585757078,0.140490707313532
mp-560891,SnP2Cl8O3,1.58118257326597,1.58611485712731,1.57867372816551,2.8446,10.4751551671173,9.14541998396762,391.80171422504,1.64781579941078,0.609416258471212
mp-540688,SrIn2O4,2.18248200908965,2.12715417165752,2.14552866911631,1.8652,17.5231005697855,11.4019508342214,5.62045081273446,0.228359169567938,4.55698821725164
mp-558248,PrTa3O9,2.292524710881,2.39254338727639,2.23670703714188,3.291,13.8389825237133,8.49495288371782,12.1482533030691,1.20643233218578,0.911206612763885
mp-17313,Mg3BeAl8O16,1.75991921973709,1.75991931917347,1.75417676418313,5.1747,17.2344779920843,13.4785260602996,24.597127192319,0.373602410253311,2.71729741498996
mp-19490,PrTl(MoO4)2,1.93981093150853,1.9615557779477,1.96249500891085,3.517,12.4619131344294,8.82010761496943,7.98063540604732,1.95219631427089,0.637546871158977
mp-4851,Sr(GaO2)2,1.8130157362803,1.84120196339239,1.85390760017861,3.0697,16.9324722382451,12.6981418231728,55.0223913660916,0.365230977513829,2.75616780291242
mp-30304,Bi3SbO7,2.37119138831095,2.42588868458551,2.51262423573442,2.2779,13.3344307222733,7.83112377066384,3.7191976793688,1.41358051412961,0.976298641713101
mp-23598,SIO3F,1.70786944465905,1.67768984022673,1.83623959221012,1.9356,10.51888069215,8.30793650110022,64.9083334390491,22.1839522832517,0.060483972569732
mp-559764,Nd3Si2ClO8,1.90997437417364,1.89421343570359,1.90413286563727,4.5431,14.4708881143995,10.4961780549782,16.1452009912072,1.44021227056399,0.756280001030679
mp-5616,Sr2P2O7,1.62017428692101,1.63873707775226,1.63356605314875,5.1125,14.7522425579456,12.4601765611158,91.8842012864557,0.50387669759315,1.99549577866247
mp-22804,Na3In2(AsO4)3,1.82947497659848,1.80946527736787,1.81308017197255,2.2536,14.7464422765404,11.1670866095155,18.4013080741424,0.362175717394424,2.81543464874008
mp-504924,Cs2Te2O5,1.75314259545537,1.95029834897125,1.937545297535,2.6609,11.489027816765,8.42534383448901,1.89604366425447,1.41152162437298,1.23586933127484
mp-1999,Sb2O3,2.06106564912426,2.06106556906858,2.06106558847602,3.5217,11.6946572171354,7.8967648492938,4.90867164961395,0.813147038536867,1.43351098374294
mp-14676,NdTa7O19,2.34386765198038,2.34386763704779,2.42322648962081,3.174,13.912988281028,8.35454148572097,12.0910192119804,4.46258766145364,0.306791247569757
mp-4974,La2Zr2O7,2.20864967570686,2.20864981153645,2.20864964627711,3.741,11.2062448126589,7.13267636723003,1.65746171291181,1.35918931120153,1.3390648709318
mp-9749,Sr(BO2)2,1.68500175370829,1.55328360578485,1.7088440186278,5.0499,14.6954550059544,12.2667310375177,6.66659677073694,0.550749036779799,1.96571060386441
mp-32095,Zn3Mo2O9,1.9457337407775,1.88291503525783,1.89162706683955,3.1562,13.1516064809404,9.52091276804391,9.78512556184281,6.4336959421037,0.25762758303788
mp-23331,Si3(BiO3)4,2.05278498874091,2.05278487182656,2.05278498143376,3.9868,13.9081344114734,9.42446963891681,2.14563891695785,2.05146634304551,0.953517849347516
mp-19300,La2MoO6,2.1122432198968,2.11227479036228,2.12677709457291,2.8809,10.9170146391663,7.20261029746597,19.2541897268124,45.6207874741149,0.073856580073817
mp-18253,SrGa4O7,1.84278996361495,1.81615033243396,1.81059204681784,2.4306,17.3852193607596,13.1251102936534,92.1469886497977,0.368532234231672,2.72431907456648
mp-558105,LiB6O9F,1.4960666863479,1.56813835167692,1.52731618206578,6.4556,14.6400473065445,13.2711808845103,9.89566814055855,2.06227980802998,0.585954571170182
mp-29019,Rb3IO,1.83591915944031,1.83591922207923,1.86632935464242,0.6343,5.83495990561119,4.35335127472182,7.79087337600358,0.322469159730786,3.22942705957863
mp-2125,TeO2,2.23068791183348,2.4246808655986,2.05325992752988,2.2279,13.181428931559,8.30334174959073,1.80963713085912,0.720359648039518,1.9407924423416
mp-559703,BaLa2Te5O14,2.06221879052636,2.01714497991592,2.14794911485352,3.4825,10.9188306691535,7.32742746012925,7.2235124889223,18.2468452939117,0.19324080040561
mp-561533,SbOF,1.92216511257488,2.00976198341993,1.85935382861896,3.3283,12.4623478800047,8.92062886734691,7.82526266027349,0.768136694020546,1.42964285827382
mp-15108,RbSnAsO5,1.7825826628799,1.81414872598693,1.77937360045607,2.0724,14.1376695421294,10.851491046572,145.950946163013,0.394874741963487,2.53930024886523
mp-27271,Tl8Ge5O14,2.07472995592197,2.08000471874465,2.00613649585466,2.2427,15.1887233891622,10.2885518937973,6.57042626949829,0.718733943943797,1.54353255546408
mp-14535,In(PO3)3,1.62749507526137,1.62189224364629,1.62857170244359,4.3968,15.2736507049444,12.9416727750428,18.0995488010124,0.607987424239086,1.70002085830838
mp-7477,RbErO2,1.94884860879443,1.95298844082601,1.85943246986816,3.6816,13.1456850326065,9.4545046357651,2.28539517320039,0.577051511272186,2.17050863400892
mp-18964,K3NaCr2O8,1.64943660987623,1.65161084702178,1.65532427940872,2.8395,9.4585684258752,7.87984057945507,13.0176727405466,17.1087149239367,0.13526839002412
mp-8702,LiGaGeO4,1.76410147100443,1.7746493456455,1.76096023237324,2.7452,15.9977857096178,12.4516994668447,12.7201762039902,0.443393560358006,2.33394797300449
mp-510661,Gd(IO3)3,2.01469113265533,2.14454278343893,2.08454802535226,3.0039,16.0531608341307,7.02105847411803,5.30486820837322,393.429533871934,0.191047848026056
mp-2292,La2O3,2.05973525240503,2.05973524026754,2.0597353349399,3.6912,10.6371598396478,7.18674006057369,3.47768323141522,0.739726347641687,1.63939901993809
mp-14398,CaSn(BO3)2,1.83970860464368,1.85245708992138,1.74376771962323,4.035,15.5703340939741,11.8244037148002,5.18847588766074,0.917061402119865,1.2831743518001
mp-559062,KP(OF)2,1.4519992493111,1.40628312938754,1.40218207804835,5.2751,13.4202865839375,13.345790121326,34.774949917488,0.593384151272281,1.71400525172373
mp-29195,LiPO3,1.52546058618373,1.53600124348908,1.54448577526632,5.5612,14.1598356840324,12.7892226951637,74.0407440369808,0.581426589303797,1.73341366030324
mp-4529,K2SO4,1.51294854506027,1.51590432745606,1.51038523231658,5.2088,14.1086047167517,12.9624515830938,10.5113919055272,0.523431452517786,2.0056047128943
mp-23544,Bi4Br2O5,2.42544138457313,2.353113677662,2.38793001572492,2.5707,11.9269422020067,7.11699070093245,22.643988822213,0.821798945964046,1.26100447193761
mp-4589,PrPO4,1.9203834460857,1.83957600549692,1.83905561362347,5.7023,15.8356291036741,11.6940152417511,7.0225360607264,2.50910307116693,0.540947491971423
mp-543028,Tl2TeO3,2.27479763935169,2.21415226892822,2.26104762002042,1.9408,14.1647109409672,8.87721470240734,1.56600980173997,0.731797765986791,2.00506335632147
mp-18698,CsPr(CO3)2,1.67649582761187,1.68328516003677,1.73707145794294,4.6085,13.3624014673824,10.8144387972839,59.4225546398757,2.28496918819768,0.454471289701894
mp-560527,SiO2,1.39477092025895,1.39375710222406,1.40603343132374,5.3907,12.5912603962054,12.7863258400446,26.7064174062737,0.616987507174176,1.65822254369553
mp-541451,Ga2(SO4)3,1.66538531277299,1.66572954287303,1.66369647171592,4.3321,16.1827851004965,13.3730588310644,15.3439314614586,0.688295521329758,1.51803665871586
mp-3822,SrCO3,1.70295372808541,1.5393539001802,1.70101407695527,4.4366,14.2575253390314,11.9108485957322,16.9290282269059,1.13677221923533,0.938753843165244
mp-28109,SbAsO3,2.11695911627976,1.98415189942706,2.01518154269038,3.5946,12.3854310804086,8.44318822706938,4.52253218198542,1.2457322948367,1.02385575404313
mp-28346,SrSe2O5,1.84130087438202,1.77835210236893,1.81505890813494,3.3245,12.0746914345852,9.17172310867883,15.6565642433165,6.37310508699918,0.220780358547861
mp-9125,Ca(SbO3)2,1.95468361634306,1.95468358053164,1.7557947089566,3.021,13.4772557247676,9.84424043877029,7.66818707869934,0.428639503742096,2.46337168132519
mp-560950,K2NaTlO3,1.88442171766301,1.9060719713589,1.91777542220146,1.2549,11.232040102805,8.14701024652045,18.7470951524216,0.426920232869221,2.39569954383135
mp-555742,Ba2B5ClO9,1.6890480070146,1.68142663533084,1.67817110867754,5.2529,14.4312938911124,11.7938666811571,24.2105236240038,0.708002882949654,1.45372797961303
mp-3575,Ca3(BO3)2,1.7758345333955,1.78162802795645,1.76852103465014,4.8251,14.7075795275593,11.3922098357805,7.52751699851523,0.543380689689533,1.97317632680052
mp-616564,RbPbIO6,2.01464248441256,2.014642754932,1.58077857083147,1.5044,10.7780401907276,7.94452867368011,9.88872526107096,0.670290688664588,1.59301530532204
mp-640040,Mn4Nb2O9,2.30720720135839,2.30720754376367,2.23169077831137,1.8566,20.9731757356353,8.09086322837845,4.74388179954994,4.56962845501319,0.42963400460884
mp-560349,La3NbO7,2.2053553432497,2.22334254445868,2.2449567055959,2.848,11.1220318326831,7.03669409272911,4.64220407943961,3.59816769479131,0.493334146955029
mp-557993,BiO2,2.67726558450969,2.79206529293281,2.82468366193455,1.0802,10.9285414132463,5.81342242320284,3.80893316480404,0.934473664178158,1.33266182101407
mp-29492,S2I2O11,1.63517653175429,2.02369023815405,1.80983487644591,2.6256,11.7041991993806,8.83745864677863,10.6340002666442,2.24724665642799,0.53902697012423
mp-32542,Hg2WO4,2.49494173278656,2.55713589392508,2.32783550965269,1.9671,15.8609777479975,9.24395281688984,0.856450758014296,1.58108065259447,1.80008825561723
mp-19584,K3NdV2O8,1.85658265638781,1.76528475889869,1.85790584530002,3.6781,11.5100465806202,8.67412840523741,13.9819795454496,40.0615511568601,0.096482220652078
mp-7976,RbGdO2,2.01447302041998,2.02098917612144,1.87729871890437,3.1207,13.865797273958,6.96851766565253,4.25666064063321,10.237324363606,0.332607712994854
mp-7013,Ho2Be2SiO7,1.86560283822683,1.90821647094872,1.90821647094872,5.115,15.8821693759532,11.5689855917074,6.53812476728254,0.550971173724353,1.96792603982188
mp-568015,Na3ErV2O8,1.86607300232333,1.81166652560564,1.86210857094854,3.6832,11.0342727966601,8.23010273974706,11.6993789112331,2.985517221397,0.42042496004074
mp-616653,CsUVO6,1.75470910124727,2.0954489304204,2.07852430344223,2.0336,8.4806162436231,5.94321855655448,9.91223948568044,2338.18910493926,0.101313056646189
mp-25190,Er2WO6,2.16553067630085,2.13881053391833,2.20945772985138,3.202,13.3693673669576,8.63272821287592,6.05373160049719,5.9774451942435,0.332482922824699
mp-560978,Ba4Al2O7,1.92168018671162,1.92184038359069,1.92369454955822,3.5745,12.4777613433289,8.96566793457165,24.9103810231027,0.379643405270446,2.67419466575385
mp-22968,NaClO4,1.47901467200295,1.48038233237228,1.46995474420133,5.7055,12.8345472994152,12.1459469129502,12.4913844535208,0.658799952245811,1.59796664153344
mp-540635,BaSn(GeO3)3,1.80230442767031,1.80230416134458,1.79325710092,2.88,14.7917531920297,11.3093044496825,9.41959573844045,0.384411906156818,2.70753791095273
mp-23093,Sr2NdBiO6,2.1975870494704,2.2122112625154,2.17922545873528,1.9434,12.7938959110893,8.18150888210314,4.06980748569663,0.570650326778304,1.99809849272375
mp-25774,Na2Mo2O7,1.80722598476228,1.94855536487933,1.80314086526816,3.2142,11.3597422563977,8.44547199516759,14.3260056301991,418.375726475323,0.072193323698464
mp-541275,Cs2U(Cl2O)2,1.63553838842138,1.69118149233014,1.6718862461304,2.3359,6.9220765732474,5.71570835064598,17.7931585142145,1016.33650718458,0.057185302540528
mp-560595,Ca2AsClO4,1.78935262874594,1.76322437880152,1.79172794530866,3.8079,13.7396471685112,10.6068963719912,92.8974423877228,0.544395719187193,1.84766364684696
mp-3978,SrSiO3,1.64758691424762,1.64450138035819,1.677181969853,4.6706,14.1792144018698,11.7803550448733,15.051752872057,0.469892836429348,2.19458225241346
mp-555117,Cs2Bi4O7,2.03781708698303,2.10838698060864,2.15216780014942,2.6565,11.026990151108,7.32772192698416,9.77010680288583,3.58972789663932,0.380925672842125
mp-17583,Gd2TeO6,2.07023979287425,2.05804157149461,2.07135007422695,2.8842,15.2622358419787,6.78621789066232,14.4084065751166,1.21874523494651,0.889919955686196
mp-542967,SnSO4,1.87885721916275,1.79965827311743,1.81826586339842,4.2109,14.7994223689674,11.1202346015435,3.42146075620146,0.966019250071451,1.32744888353963
mp-561005,SrBi6(PO5)4,2.08999435645171,2.09719469053305,2.12615126696103,3.5707,14.5028889786798,9.61785414005539,6.02682923600805,5.34735981708469,0.352932902633796
mp-19276,BaMoO4,1.86607802623577,1.86566595616686,1.86034621509008,3.8686,12.1464084996771,8.9800565939374,6.14519246414245,7.0860227466926,0.30385172206839
mp-1143,Al2O3,1.80609886772568,1.80708466597445,1.80119628580563,5.8537,18.9893166447533,14.4759676781069,3.76891418540325,0.385153740098602,2.86169421161984
mp-557881,SiO2,1.396680339233,1.38382696895241,1.38848755846064,5.5251,12.4672539247776,12.7671712469636,834.397137897043,0.648331064399637,1.54362032043886
mp-560613,Na2TeO4,1.89417917843059,1.67003379007731,1.75133338630884,1.869,11.742022341072,9.1126001849821,22.1424371402854,0.554427862648399,1.84882330355957
mp-23426,Al4Bi2O9,2.00731779995097,2.09066873511802,2.09375687939168,2.7751,14.6532771388996,9.88265524873287,3.34695954352744,0.710218090590214,1.70679683735156
mp-8076,Na3SbO3,1.84537114966069,1.84537116862706,1.84537121739774,3.0982,11.893673219529,8.87674778057372,7.25841030545065,6.52752110700584,0.290968727123861
mp-15576,Dy3Ga5O12,2.0346870373598,2.03468711353859,2.03468705456146,3.3047,18.1208255343168,12.3747661473332,6.1963140887091,0.312520324709508,3.3611781555203
mp-7061,NdZnAsO,3.24311992223538,3.24311992223538,2.84301325533315,0.8622,15.2368343223243,7.41673060769304,0.882627891906913,0.496927060067737,3.1453480549701
mp-553909,Tl2(SeO3)3,2.03725840530847,2.07626791623817,1.93763296576003,2.1623,12.3928723608077,8.52831272211845,33.7028280834994,5.5362077636285,0.210300159745429
mp-7087,SiO2,1.4398467105911,1.4398467939333,1.44235797914387,5.3645,13.4557623541771,13.1329441121936,2.14307954001176,0.604190509562388,2.12172533501042
mp-14853,Ba3Er4O9,2.04476952246457,2.04251060951957,2.0701665029654,3.2731,13.0252935671001,8.82737449448406,5.17976265211362,0.58406300648916,1.90520308665381
mp-551101,HoBi2IO4,2.61430269479263,2.61430868108569,2.41234956629424,1.8457,13.2878468999129,7.53365736867446,4.20618170716199,0.296112316293179,3.61484226549558
mp-18255,RbSm(PO3)4,1.62915202482764,1.63170070172198,1.62494911612641,5.3218,14.5822090626916,12.3345559223623,31.5400022578115,0.537469703050056,1.89227575812632
mp-5416,Na2SeO3,1.6803094893501,1.66264554851598,1.71443362367868,4.2507,12.7563750188864,10.406496994972,4.1041002943329,2.65373634375961,0.620485949220081