MP_id,Formula,Ref_index (1),Ref_index (2),Ref_index (3),GGA direct band gap (eV),Effective_frequency (eV),Average_optical_gap (eV),effective_mass_valence,effective_mass_conduction,effective_mass_transition
mp-18876,K3CrO8,1.70965287412387,1.69196812322218,1.6951777251958,1.7896,13.687843252825,7.09734541408052,123.409376614098,8.71273679346008,0.122877610950948
mp-769890,NbVO5,2.37709355095671,2.32999653218626,2.32066638705351,1.94,11.0807266807412,6.7177950754033,7.18637042362885,0.773906009235634,1.4312988797695
mp-7812,GeO2,1.70162440920433,1.70162440920433,1.69331643528314,3.2779,14.5112059421949,11.7448626056804,4.48989988338851,0.478274171275524,2.31357305417653
mp-773455,V2SnO7,1.91619808996878,1.91619808996878,1.91619808996878,2.6054,10.1865130405556,7.34102569894765,5.29341471889744,1.96783666051189,0.69708623043507
mp-18803,Na2WO4,1.68004454405233,1.68004442203175,1.68004458274178,4.7521,12.3415990129017,10.1036504984689,8.06922894107147,0.552608464611351,1.9335270758509
mp-540787,K3V5O14,2.20399450316919,2.20399433529218,1.66485847146236,2.4199,10.9023225960053,7.47891052340447,70.2717417611368,66.7040651016663,0.02922206130824
mp-626787,VHO2,2.22242994265286,2.17025713914273,2.36777914088287,1.5269,11.4433015082344,7.16244707215077,0.001248750645389,0.001248855820899,1601.53333244631
mp-23844,HgHOF,1.84792892449899,1.80181656114045,2.02038819537236,1.6175,13.6793797247909,9.98376405511015,2.86685435897861,0.648764391863145,1.89020599567542
mp-720642,NaB3H4O7,1.55312663360075,1.57208028102893,1.447510158859,5.3839,14.9415412773873,13.6094985750702,57.4789468342068,0.595293584541071,1.69724107595706
mp-9816,GeF4,1.33500664792352,1.33500673406541,1.33500667414062,5.8861,12.4112557486148,13.4700287950224,8.08977906196258,0.858990474240158,1.28777003383916
mp-1190,ZnSe,2.6957161979704,2.69571554879219,2.69571562483879,1.1693,19.5514053221383,10.6045953797293,0.716081575260364,0.10627840034722,10.8057385780692
mp-722262,CaB3H3O7,1.6299784507778,1.6483272642288,1.64896531497785,5.7435,15.3671805074032,12.8820860479574,11.5895576530234,0.617068331993128,1.70685063736816
mp-561973,K(TeO3)2,2.05005222372504,2.09848349052357,2.121483261777,1.1047,12.3573728696221,8.24384888608743,7.93520078681095,1.18119885499752,0.97261825772186
mp-27483,Li5TlO4,1.9794496735204,2.02371938272084,2.02371938272084,1.66,12.8514665812562,8.87541558621762,5.38094193110191,0.518991636218365,2.11265439342794
mp-1224,HgO,2.2556772198167,2.16344499814532,2.63745578541139,1.4905,13.9771777503825,8.44559604907959,3.73070844648469,2.13586363060912,0.736240289422238
mp-7744,LiSO3F,1.38171745664589,1.42108405099769,1.42147008058559,5.7849,12.9872586457051,13.0629434802939,25.0313031619678,0.731532616270144,1.40694302444538
mp-17100,In2P2O7,1.79107444568896,1.77852632254909,1.78297127570805,3.6697,15.4623936396435,11.9189091022557,5.81958904957828,2.31878172906033,0.603094384126932
mp-1818,SiF4,1.27942227196497,1.2794221703566,1.27942201012801,8.1738,13.2516672064233,15.4019362771068,8.14656874117938,0.695640619903477,1.56027494201513
mp-10559,Gd3AuO6,2.16897659968936,2.51207791479484,2.34235262716782,1.6987,15.2268240420154,6.20650228083212,10.7732066892755,2.87659156298107,0.44045651479026
mp-2657,TiO2,3.03307329123449,2.75212044431199,2.75212044431199,1.781,10.8812349508427,5.66184178647555,2.52536947549061,1.00495269454229,1.39105337493488
mp-561584,Gd2GeO5,2.04825011656292,2.06254756066375,2.03566871322423,3.1955,15.5265001214675,7.19734576639748,7.15441246265687,311.060613631625,0.142988689054281
mp-565757,Gd2WO6,2.20071752389988,2.16517299077926,2.1676163728852,3.2647,15.209952804346,6.96585868101814,15.503675476888,35.4841272297889,0.092682448764221
mp-504811,Rb2Pb4O7,2.32021769883776,2.08505943800171,2.22983133442868,1.0836,13.2575275073182,8.42853405141531,4.2031433464258,1.42120587802701,0.941545001530688
mp-8263,KNa2BO3,1.61285022863253,1.60080562217903,1.67881199959972,3.0768,12.9332264459679,10.9238050466604,5.27950560924165,0.514599694057522,2.13266972876003
mp-557,TeO2,2.32236275590184,2.32236275590184,2.47472187932301,2.871,13.9465173818784,8.36658105754709,3.87630150431068,0.972619099558731,1.28612958844625
mp-32308,Ta2NiO6,2.32308043984706,2.32308043984706,2.44430107392686,2.8722,13.8722712198135,8.68100490423764,6.62146824276589,1.42487678497344,0.852838975968642
mp-2068,RhF3,2.91039183272631,2.89391127369171,2.99390214435943,0.9913,7.78164464142869,3.95775634139331,3.61667249805518,4.24717996819181,0.511947597677816
mp-566845,Cr(PO3)3,1.61863376030528,1.60829055210804,1.59251320559674,3.3268,15.7354541857539,10.5377413142824,14.6162942311913,11.8378182684102,0.152891820076901
mp-774426,Nb3Cr(PO4)6,1.92198051498968,1.94992435750723,1.95624275845305,2.6327,14.005584407433,8.28750867902651,56.6607029481999,8.11712360711991,0.140845266121986
mp-554151,SiO2,1.46700457395333,1.46549491299015,1.46574558160685,5.7178,13.922007487065,13.2906237308711,13.4619884821141,0.572321504903574,1.82155288874716
mp-19692,Mn3V2O8,2.22374132488471,2.27326183049819,2.26646554794023,0.7294,6.06070023707156,5.04534074441661,3.39142970955184,3.24627119753111,0.602906631058827
mp-19167,Rb2NiO2,1.65723691124715,1.65985545153787,1.78242638557669,1.0001,8.16671381291386,4.7714624730409,1806.12551031845,62.913844334933,0.016448424123858
mp-555891,SiO2,1.45316115073312,1.45410657449858,1.45608925893985,5.389,13.6842731708746,13.1949401248704,3.13144094369577,0.576008724414699,2.05542661938461
mp-3594,Gd3GaO6,2.12627368417144,2.09229262293781,2.09073676726651,3.3215,14.1868823721432,7.36084472021295,9.64588281389225,14.5569707774862,0.172366785329592
mp-566700,NaV2Bi3O10,2.17190320226294,2.25451075180404,2.23296630068615,2.7291,11.815405459933,7.48877067468011,3.00829442028654,2.85989332527847,0.682077663800004
mp-555235,SiO2,1.47061035288074,1.47058769204696,1.47477987170967,5.5034,13.990057071444,13.2889913870381,6.16943749683228,0.569775577509105,1.91716631182502
mp-697025,HI,1.60833825422391,1.6793769767387,1.58498367499479,4.0624,8.66014921621997,7.34641873094718,5.78357495178731,1.02138253448846,1.1519685457858
mp-2176,ZnTe,2.99209991811771,2.99209992480198,2.99210029577887,1.029,18.7180336619732,9.37754959982788,0.546024552248454,0.094558855704897,12.4068435614112
mp-7029,SiO2,1.49348200524814,1.49348200524814,1.49024827126221,5.5088,14.3052993219362,13.361347083811,2.42757796227494,0.552980733644134,2.22031448467955
mp-541267,VAs2H4O9,1.7881709649807,1.80941401011488,1.80941401011488,2.1394,16.4148673212299,9.29098021348794,436.859160140306,0.919430031420338,1.08991940978178
mp-8377,TeO2,2.18843210084298,2.16167075892699,2.29188835461067,3.0832,13.1552982988325,8.35628021553077,4.55022791459708,0.81212274123438,1.4511101764297
mp-554089,SiO2,1.49791430662772,1.49942635364329,1.49521031296604,5.6627,14.3956092490798,13.3903293831743,3.82163859429916,0.549334856480205,2.0820511640232
mp-505698,SmH18(IO3)3,1.63748828392755,1.65148508319028,1.6617030781701,4.1504,13.0671507284103,10.899300600821,23.2791937913548,0.407241525281739,2.49850208126436
mp-23182,SnI4,1.78320982500658,1.78320982500658,1.78320982500658,2.0284,6.84815173019782,5.28159807786286,36.9764283635423,8.44714688964258,0.145427423037508
mp-744580,ErCrHO5,2.0375994773262,2.01096758551698,2.03455547724804,2.2934,10.3696791575421,7.10292947561789,8.38221597059997,18.8789436351984,0.172269260415843
mp-315,PbF2,1.81359308280551,1.81359308004855,1.81359291463106,4.555,16.3740659933144,12.4241600604688,4.73814920878972,0.701860212238761,1.63583801124513
mp-541155,VS4,2.27040650325002,2.56888951105337,2.6010268645287,0.9723,8.56664865977059,4.96038781371293,8.22840047602343,53.0870701844394,0.140367281134343
mp-10695,ZnS,2.42714105276146,2.42714125052499,2.42714121344433,2.0186,19.9544927181868,11.7554984442523,0.80805917790999,0.18132146813787,6.7525998755297
mp-720112,Sr5Al10(Si7O24)2,1.59749865727643,1.60588331767909,1.60059314630546,4.2338,14.2399990249629,12.2671023654426,49979.5577263885,0.598547716995862,1.6707305824667
mp-557118,SiO2,1.5492928838667,1.52835184430811,1.53046643543725,5.4995,14.9434794121933,13.4896783351404,3.78112000406454,0.533824657532191,2.13774618037587
mp-540742,NdTl(PO3)4,1.70739349301794,1.6977052895011,1.71960031984179,5.23,14.9323826137912,12.018263059187,28.3366599380102,1.80579688472308,0.58906211135414
mp-39460,Ca5P3ClO12,1.72996182905866,1.72996181460748,1.73146571724652,5.4846,14.5461463957138,11.5558816243638,7.40964900681809,0.507200102727446,2.10656759269109
mp-25566,MnH2(SO4)2,1.56053134220367,1.52827484439154,1.58417871782195,4.6941,15.9451926192192,12.1538693407083,63.9006668153114,20.907053002849,0.063480037748566
mp-733468,K2PHO4,1.5262461236642,1.52700774392273,1.52192630570603,4.5325,13.9873234870808,12.7323251535899,543.380114370064,0.481491871565097,2.07871859147198
mp-643458,LiHSO4,1.4704804588977,1.51816443773394,1.46642765249432,5.9742,13.9668186293445,13.123998016927,19.1983552334728,0.635000265236178,1.62689028724987
mp-10103,YbLiAlF6,1.43717931031587,1.43717939381276,1.43738735558652,7.7214,14.9927656509342,14.6781830622416,20.2724667968796,0.548491062338308,1.87251175286747
mp-1434,MoS2,3.56392944514899,3.61472537822723,2.1217380022048,1.7346,13.4784277962171,6.57594042063269,0.983969249008898,1.49571675240839,1.68486770649153
mp-696396,NaHCO3,1.51326305380129,1.51133218386958,1.47960535954693,5.2718,13.4553761018103,12.4768976985481,26.2244603203216,1.1205296401894,0.930567455093698
mp-541932,H13S2N3O8,1.52895977383318,1.51273752515101,1.49548302564757,5.0364,14.6419044291242,13.459651959433,216.6395177397,0.525127425043555,1.90891566686971
mp-7648,SiO2,1.46716558029419,1.4682651974354,1.46935548455777,5.3774,13.8169726470144,13.1659683901097,2.68570868511182,0.581221376122379,2.09285603692165
mp-23781,Rb3H(SO4)2,1.52515833604252,1.50266130248969,1.5146198632,5.2433,13.733653884701,12.6074409629449,24.6182185434935,0.500271760456671,2.03953387213235
mp-698480,Sb4H2SO10,1.99246183903231,2.04436181484589,1.89594075856816,3.3641,12.9813482424661,9.0917248618809,16.74599738823,1.2223511288164,0.877811296767186
mp-23740,Mg2PHO5,1.61357050357274,1.61059034207957,1.61387708639785,4.9838,15.5423858131886,13.2865199803733,21.9302452621207,0.475867774622065,2.14702320420552
mp-8333,RbNaSnF6,1.40530579946146,1.40810283360272,1.41027783432911,5.1001,12.7176248482689,12.7941223007811,168.365280991282,0.741761373625224,1.35408192281268
mp-643898,CaP2H2O7,1.55463778739615,1.62563204323734,1.54394846092737,5.7066,14.1485368634164,12.4158589902726,17.4959310989658,0.539281858152683,1.91147404140056
mp-643364,HPbClO,2.15536072386967,2.12364086888532,2.06373948452803,2.9048,15.4984210701144,10.2370763401714,4.56025779902497,0.719126902400158,1.60986099807411
mp-699485,AlH12(NO5)3,1.46269639706947,1.46269639706947,1.46269639706947,3.3909,11.9751691609741,11.4651390445702,184.657381012732,3.87122787947564,0.263731408693077
mp-556741,KNaThF6,1.50452346608486,1.50452352258115,1.49662398751323,6.6511,11.6576016799865,10.8056322122575,15.8535437681771,110.423872715874,0.072133392466161
mp-2691,CdSe,2.79657776755806,2.79657772643637,2.79657784980143,3.5799,24.0529526951872,12.6830086440465,0.825583918690985,0.077543832849381,14.1071959622164
mp-643069,Li2HIO,1.64499545288125,1.63562712132075,1.6983596586118,4.3639,11.142146322213,9.23818304053072,3.36129339115313,0.424999240502516,2.6504499081766
mp-6686,K2NaInF6,1.42342573392503,1.42342574446298,1.42342555477974,5.2445,13.6033130062932,13.4868043993032,7.24173736196277,0.618487271622367,1.75493655879355
mp-696175,NaAsH4O5,1.55510366535482,1.58583944332331,1.54585650045533,3.818,13.4907043990068,11.9448063266328,33.8204608771976,0.611774031461893,1.66415836719729
mp-643801,K2H6PbO6,1.72781204706994,1.72781199498094,1.7913640054439,2.1311,13.7573774445745,10.8139522274509,6.17503646056669,0.524734841690789,2.0676667801451
mp-24463,H3SO4F,1.48231591437183,1.41679207719411,1.42478176223589,5.5302,13.6658233153236,13.3306737008326,16.3481376784518,0.633896328542878,1.63871407273081
mp-24097,Mg3Si2H4O9,1.5955082951837,1.595508414268,1.57691126573438,4.2475,14.8903608436316,12.9338992230532,621.190824391394,0.490443367878153,2.04058121042326
mp-6473,Ca5P3O12F,1.69602394145837,1.6960239591468,1.69412259001526,5.5593,14.5683241673578,11.8157021792799,14.6065178833258,0.534976800072933,1.93770252378618
mp-555840,K2PO4,1.58500630913571,1.55444115681489,1.55239787103693,3.2394,12.7318005706116,11.2591843440952,16.3720986557207,69.1028128138499,0.075550715399974
mp-23121,Sr5P3ClO12,1.71788607305607,1.71788620112044,1.71725280608302,5.1538,14.7971165586137,11.8431885142267,9.00838366107651,0.46986561456876,2.23927580805687
mp-31706,Li3Cr2(PO4)3,1.80698454337606,1.80783629513294,1.80287399171434,3.0857,19.4016948366115,9.94670215844068,76.4471896229026,7.02029182770115,0.155525146518817
mp-34579,Na3HfF7,1.41023787709734,1.41023787709734,1.40769937486667,6.3564,12.4781965182154,12.5353462893202,8.25376118476134,0.622377302855962,1.72789928356176
mp-753414,Lu2Pt2O7,2.65372643088921,2.65372643088921,2.65372643088921,2.1046,13.4129387484383,7.36417402978524,1.65121185977271,1.30706939920152,1.37068612250784
mp-559091,SiO2,1.46316197667927,1.46316171013323,1.46788336048884,5.4942,13.8796619840092,13.2653923390708,4.09713567211618,0.569895377810135,1.99878098996949
mp-13898,Cs2NaInF6,1.51141356021441,1.51141363961028,1.51141347751037,5.3058,14.0085041406588,12.8872901098958,15.3813060490042,0.59821651000868,1.73664956048137
mp-12829,LiCaGaF6,1.46477790808027,1.46477794904211,1.46053110545445,6.4351,14.3498541610946,13.7308624761483,31.8779839757358,0.670193984105912,1.52347491875303
mp-733655,KH3(SO4)2,1.47931256332122,1.4855492654234,1.45644892804382,5.6049,13.7244693181356,13.0172679244935,134.912845705733,0.610459519609021,1.64552244871644
mp-6058,K2NaScF6,1.43468854459775,1.43468867703067,1.43468848186636,6.7576,12.0873543885814,11.8610747712842,5.72304596298295,0.509240144268733,2.13844219932185
mp-768915,Na3AuO3,2.07280216132655,2.07273548963682,1.69591694372101,1.9019,9.58596117435606,6.80813807370831,9.65000777662152,24.8317679332986,0.143897854403722
mp-18065,BaCaAlF7,1.49441818444504,1.49174965392991,1.50473592367565,7.003,13.72333838919,12.7706401048524,310.105495041646,0.499450190367201,2.0054263685803
mp-696683,K3SnHF8,1.39646983497675,1.3797070703595,1.37870537824439,5.1705,12.8009316106246,13.1707046173466,1063.50775307823,0.929004982163925,1.07736077666639
mp-14638,Rb2LiGaF6,1.4724303039533,1.47243343143247,1.47237462284569,6.1125,14.9146727752447,14.1622695057651,24.0383224410249,0.639175068253646,1.60611683353835
mp-643259,Li4H3ClO3,1.50829861764838,1.50144680891465,1.50525484221111,4.4775,12.246094324242,11.3230788930452,36.0573629425895,0.624629648336631,1.62868224906293
mp-696794,RbHSeO4,1.54744350139189,1.59814075725513,1.53288581440367,3.6244,11.8693209665144,10.5303776003436,78.6689357694417,0.762382414554357,1.32438918195297
mp-764900,VOF,2.09057901548829,2.19864833477298,2.31913773415897,1.3591,11.1921062839383,7.13958013969585,0.003473727196098,0.003474189167341,575.712171599017
mp-6527,Na3Li3In2F12,1.4197195180739,1.41971959907582,1.41971948285568,5.2896,13.5823456473834,13.5124274263855,21.0462487053074,0.666166359966769,1.54864094122093
mp-27987,BrF5,1.46370729655898,1.46885137096985,1.50293563734446,3.5105,9.98870944789092,9.4366919295897,5.95688386113817,18.1299613402981,0.22303032160242
mp-24041,MgH2SO5,1.55636365930331,1.56504447221157,1.56313483743406,5.5024,15.5908710126854,13.8118282557767,9.43270145460982,0.520624606015825,2.02678392921944
mp-560732,BaNaZrF7,1.55959825275614,1.54459589537199,1.51140852849255,6.0979,12.9161131330082,11.6376795971128,43.4646593778909,55.0991286827555,0.041156304766114
mp-697267,TlP(HO2)2,1.70674301228978,1.71185128150783,1.71887776179692,3.9723,14.680620116553,11.7858773867543,9.04893790513568,3.3440869950413,0.409545489605808
mp-560404,InHSeO4,1.93173285678947,1.82757903522666,1.82615319455954,3.4371,14.4476747601644,10.6932886851947,11.9113715035039,2.41587979620392,0.497881267566125
mp-390,TiO2,2.6399609315291,2.63634004635214,2.56686881238602,2.3496,10.7354800965201,5.96312147646845,1.95367712554333,1.85110477582947,1.0520732397931
mp-696088,Sb2H20(Cl4O3)3,1.64798215402959,1.66888142478727,1.66702589661949,1.7274,10.5308275212665,8.72233319918271,63.0549816344184,0.781045405216407,1.29619447108574
mp-643277,SiH6(NF2)2,1.38584119220061,1.39233438512449,1.38229754394631,6.5941,14.0888690877487,14.4687618587578,15.219046601134,0.595006663664123,1.74636058484985
mp-13190,KRb2GaF6,1.43878699257395,1.43878705165149,1.43878705860179,5.8895,14.0052717045927,13.6924863747283,11.4902329190484,0.527865387579418,1.98145281037253
mp-762082,ThH10N4O17,1.65159142344588,1.54889840209098,1.53784461178625,3.5538,10.9694999859755,9.59416961418858,141.675272071341,30.4952734824813,0.039850361718514
mp-707009,BH2OF3,1.32316351975105,1.32825938731861,1.33607457875674,7.5534,14.0545019105455,15.3559636107482,29.9499342455582,0.672390068295854,1.52062101619582