MP_id,Formula,Ref_index (1),Ref_index (2),Ref_index (3),GGA direct band gap (eV),Effective_frequency (eV),Average_optical_gap (eV),effective_mass_valence,effective_mass_conduction,effective_mass_transition
mp-14322,Ba3Tm4O9,2.04311724577911,2.04066493820029,2.07068486496618,3.283,13.1180326765261,8.89398770052927,4.85520195855571,0.583229098289458,1.92055674817818
mp-560670,MgSeO4,1.72420104106221,1.69731796962148,1.72290174415142,3.1839,12.8023673881616,10.2639466925294,5.21804882674054,0.577746821714712,1.92250448144275
mp-30206,CsClO4,1.47405830278181,1.47020896473937,1.47396262164276,5.4653,12.2811084649309,11.6583233415541,35.0301779069839,0.597687459382634,1.70166205970373
mp-556210,Bi2CO5,2.32447566990924,2.33406633367606,2.2951314973221,2.2747,13.8499634240822,8.46970073360952,4.83738475330198,5.2742020022176,0.396325413723337
mp-3372,Rb2SO4,1.52804938401872,1.5263885645536,1.52559969847926,4.9943,13.663958333118,12.4225599036335,20.0248125845749,0.479542213529336,2.13526019595854
mp-4157,Sr(NO3)2,1.58440115501094,1.58440115501094,1.58440115501094,3.7142,11.6129619421585,10.1216816139768,14.0156785286351,16.7906777636848,0.130905525745783
mp-12221,CaTeO4,1.95102365439274,1.76783191791528,1.90389020429225,2.2537,12.5366496769228,9.22136191179127,21.4829301414311,0.60149259803051,1.70907943455939
mp-27911,BiAsO4,2.283290691086,2.20519260610043,2.21659316519744,3.3075,13.8712027198984,8.74170694276857,3.61776607520054,0.783247239514583,1.5531497374548
mp-557025,K2SeO4,1.562657678444,1.5554042014859,1.56753459929917,3.6435,12.4230170278905,11.0026555953662,23.9415804235018,0.72283252886965,1.4252146541997
mp-557004,SiO2,1.40404205065233,1.39041118019095,1.3949520493551,5.6035,12.5777435480818,12.794086889019,103.254151757751,0.637455303634048,1.57842227880559
mp-554699,GePbO3,1.98080251665834,2.00833430733033,1.97675472428928,2.8358,15.8004741321744,11.0112014075041,4.52798372032824,0.703711182618581,1.64188637945165
mp-667383,SiO2,1.40188552671037,1.38239302660278,1.39502730080812,5.5244,12.5629115225807,12.8213818392908,25.3370876808461,0.627179174313684,1.63390853241967
mp-9467,NaCa9Mg(PO4)7,1.68653656942267,1.68682758158622,1.68404679863714,5.1617,14.4234495641145,11.7664229781377,34.7735809815976,0.556821973513842,1.82466360189495
mp-540857,Yb2WO6,2.37201567448447,2.78480229280285,2.85823802192889,0.5054,19.3654484336295,2.74822566038982,3.01763150672608,2.55776593506085,0.722351912468571
mp-600007,SiO2,1.37867264062213,1.38782608780783,1.36795978742067,5.6576,12.3105905030541,12.7539049558207,17.863920061534,0.626611507011272,1.65186390657195
mp-28233,MnCl2,1.8503935311171,1.86458899224467,1.62298217796746,3.4303,15.8547192186588,8.31837618802217,31.7727466730375,6.08538749779725,0.19580158724223
mp-567998,ICl,1.75090866409416,2.1920351685135,1.8595350897469,1.8886,7.28838078225101,5.20790165558221,6.16146804060823,5.52831226411985,0.343186015988605
mp-28306,MnBr2,2.02566140556609,2.02566141790774,1.66768577975589,2.9513,14.731073469474,7.22366998516092,29.5538099374755,204.084373885099,0.038736519115443
mp-38970,Ga2Te3,3.4153815130963,3.50115241884726,3.4876991297989,0.6825,10.253319438614,4.60650245969362,1.44167444204667,0.3158462845201,3.85973496017881
mp-679,Er2O3,2.02906710091115,2.02906722412048,2.02906729804608,3.9798,14.2843686839399,9.77860345306572,4.16291225012658,0.463791833769541,2.39635618106515
mp-27697,ThI4,1.97602026558434,2.32373022530586,2.18811708553267,1.8297,6.12822287157398,3.97044502443927,48.4144020507563,9.30561248537172,0.128117039989766
mp-16705,Pr2O3,2.06883777759398,2.06883780659577,2.06883767367089,3.6974,13.2599900875704,8.92444659373711,7.81387002613634,0.544979226491399,1.96290988400072
mp-484,Te3As2,6.68131544158783,4.12695898331932,5.7624382191916,0.553,6.36521892608793,2.05979697956221,1.23616578349937,0.63316962610982,2.38830859287925
mp-31033,HfF4,1.64908837543656,1.63960037509144,1.65501984882357,5.5186,13.7390080309354,11.4767272450936,9.01539504624299,1.29581047864461,0.882639164266117
mp-600027,SiO2,1.34525764446815,1.35158314949544,1.37323129879857,5.5226,12.0228027491366,12.7391640907455,41.0699121912533,0.674979029229718,1.50587623434897
mp-13868,PdF4,2.42664126108496,2.22617270893343,2.37887553898896,0.7058,4.01276714949324,2.43166872516484,12.1328350107721,7.98328748405544,0.207682647218748
mp-612740,In2Se3,2.78887478385101,2.78887497209896,2.75415188942077,0.9903,13.3641750451631,7.08426312113482,2.77864195691554,0.135170422463817,7.75795620754864
mp-776890,Rb2O,1.91673532862521,1.936077790276,1.93383344422419,0.9393,8.6878982255944,6.22339278664748,10.1438381552735,0.355497823852273,2.91153875544404
mp-569059,HfI4,1.97516651956234,1.96915413820249,2.11778374958351,2.3748,7.36022650127725,5.05695393042236,8.65697844747629,6.38249981023919,0.272192167107806
mp-2234,Er2S3,2.57655659747656,2.57283458076885,2.55887220665667,1.4611,11.3915036815907,6.41409359917985,1.39738764439136,1.10786173495866,1.61826075482212
mp-562065,PO2,1.52625024160522,1.5881361245183,1.58382449153939,4.4868,12.4749915814452,11.0152398765502,8.98317746136163,5.57453340274261,0.290706396746155
mp-641,As2S3,2.41827384925694,1.90260048092078,2.66664289885241,2.2438,9.56628807110111,5.82690029007728,4.43358113748349,2.00594620316353,0.724069158207056
mp-29498,WBr2,2.02482155016189,2.04548418473475,2.08225647315598,2.4668,9.79362287192249,6.64184538395928,11.9046838696867,15.939085127938,0.146739408713734
mp-561197,TaF5,1.47950525514444,1.47899413453874,1.47897043580999,5.5628,11.1839419127961,10.5600932850215,100.700947256038,57.3171400909977,0.027377181322208
mp-573815,ReI3,2.29883977910597,2.28959186319309,2.63020572959607,0.9537,6.90798919750982,4.09805162537707,11.3059337163858,23.3923500480442,0.131198148194818
mp-29831,TaCl5,1.65466323461906,1.68256467037674,1.68141362252124,2.8332,7.7453602387436,6.36896884044237,19.0145967333259,54.2757329070205,0.071015616110091
mp-540675,SeCl4,1.80342409321823,1.81094183230716,1.80290989514174,3.0845,8.36258784714111,6.3717042201812,14.0653308573674,19.1698276331409,0.123262108881739
mp-1056,Tb2O3,2.02170279220265,2.02170287134386,2.02170295790455,3.9271,14.3033955882579,9.82306518224447,4.50224053008826,0.486296280436338,2.27847118299025
mp-557259,MoF6,1.45957406458186,1.46292828600721,1.46360291404465,4.1644,8.82409797290879,8.45305943477828,44.5044144759776,31.9374540694144,0.053780880710337
mp-2833,IrS2,4.12369303294996,3.86893039094786,4.33868069463518,0.6196,9.01523641759018,3.58550893629961,2.00362083018448,1.47269489275415,1.17812370333904
mp-572670,B2S3,1.6921240705102,2.25957823055543,1.93270206705534,2.5298,10.6116898918507,7.48693218312686,70.9548326416367,2.5286097519334,0.409567704874644
mp-561384,ZrF4,1.70463043502103,1.71255203716559,1.71255203716559,4.8934,12.8970529303581,10.3698078303882,69.9050876091162,3.13225293343494,0.333564129847352
mp-2632,TlF3,1.9570315250399,2.00818857431268,1.93782347235242,1.2816,13.7062574952419,9.64278252095674,43.6955575500442,0.331399616682035,3.04039062068435
mp-571246,GeBr4,1.6114747252129,1.6114747252129,1.6114747252129,2.9647,8.57400260526136,7.33548497659006,38.5956216818691,2.14206666894208,0.492748552477966
mp-560553,IrF6,1.58337034518144,1.58670952918296,1.59243730802817,2.0862,12.5250349487765,5.75580910408654,32.4110232253593,10.5105659280756,0.125996055888859
mp-22691,InSe,2.82082517359726,2.8322750237221,2.50561976564681,0.5365,3.91922130303508,2.11135784493111,1.72630361665299,0.132574759114536,8.12218632775358
mp-2809,Sb2S3,3.73024727196469,3.52086178087127,2.70676854570168,1.3534,11.2334803010674,5.2110464612068,2.67758052432164,1.51246014978471,1.0346459393983
mp-570418,YbI2,1.89619491877813,1.89619507698971,1.72258119982775,4.2089,10.5869484128211,7.93011649415108,2.28133706367994,3.21601102510737,0.749283642853847
mp-569561,TeCl4,1.74067416537386,1.74150858740346,1.74222679924285,3.1474,8.74936364140713,6.90691551062116,14.5630749112444,12.2577428971723,0.15024790484654
mp-401,Sc2S3,2.83308871198909,2.82974204301381,2.84938226989641,0.7965,10.3664823321957,5.40609879738736,0.72539518422153,0.685558373066524,2.8372239114121
mp-23174,ReCl3,2.01758438980876,2.04010341404547,1.95662925205569,0.9959,7.57937166076754,5.2441300506728,92.3065366390969,71.6337472413537,0.024793369689897
mp-23265,GdCl3,1.95562023409454,1.95562010881459,2.08308537271039,2.0447,5.01500735866155,4.59748803526627,3.13778638205672,174.798950370371,0.324416868089161
mp-29109,SiI3,1.74567597222394,1.81061759629139,1.79963422950332,2.8504,7.94420436996282,6.11991926498022,9.94168388078386,10.9662857527467,0.191775159569666
mp-30954,GaI3,1.78513691631763,1.8794473123767,1.82670535938339,2.3835,9.01951693422139,6.78367177064743,7.17211755855047,13.0468434398536,0.216075727597708
mp-707219,K2Zr2ZnH12(OF2)6,1.46893380381827,1.47747930273151,1.48274117431196,5.1178,12.6220425413164,11.9454994350114,1989.22978265629,776.100203918127,0.001791200544796
mp-771957,Ta2PbO6,2.35740778398647,2.51725765467105,2.41448231511436,2.6067,14.7211755006135,8.66509223145224,2.14546147234194,1.83072688567639,1.0123313115903
mp-625873,Ba(HO2)2,1.72569321433446,1.73267438372015,1.72964587705114,2.9989,11.8591945315229,9.42742709380324,9.9953287756553,6.27385011599155,0.259438492167003
mp-778057,Na2SnO2,1.93484334766409,2.09162596321618,2.18756814979557,2.2963,14.0487100688899,9.44532668991817,1.83175955671147,0.748235426000334,1.8824009306576
mp-752443,Te(S2O7)2,1.66476652116746,1.59094202282799,1.69844781786194,3.3456,12.4644187371049,10.3888718394393,66.5079066417054,5.63521306266936,0.192491385838228
mp-774547,Er2GeO5,1.87588466862971,1.86035539077887,1.87610797397165,3.8701,14.2310875072587,10.4857956482315,21.3788827095113,0.461624762490207,2.21303673654178
mp-34291,Zr3InF15,1.66476113601922,1.664732035494,1.66468081024562,5.4053,13.1078246216752,10.8334282505252,27.8248434493939,30.7513741096691,0.06845797811498
mp-755357,NdAsO4,1.85197320174996,1.85443342830095,1.97658309463579,3.7405,14.345611357112,10.4480954615878,3.87276689870799,0.486033666419051,2.31568396304364
mp-30548,TlBF4,1.4923189571938,1.49188680535756,1.49733290887498,5.9271,14.4328545031764,13.4647542384857,6.29574117578487,0.84963422543951,1.33581460206622
mp-768241,Dy2Ge2O7,1.89930583108672,1.8675490328235,1.84518434580396,3.8505,14.8167657825465,10.9178977368042,8.929201673952,0.448056500434881,2.34385347614692
mp-754359,Y6TeO12,2.05591499094685,2.05591496419477,2.03342893900918,2.8582,14.6655217074344,9.95621391299248,6.4304123049287,0.959295399630264,1.19794279219679
mp-15577,Pr4Ga2O9,1.99647407947111,1.99928701791414,1.97717056421544,3.6092,14.9188133269172,10.3858494007247,12.479274693181,0.480654670432911,2.16062861422208
mp-13230,K3YF6,1.40579250246969,1.40367118300548,1.40018963715634,6.538,12.33874934849,12.4688636793045,43.2768314154187,0.594497341201907,1.70520036138625
mp-23068,NdBrO,2.10556224082785,2.10556224082785,1.9358788391839,4.4819,12.9542132686995,8.79224672304303,1.94033316655396,1.19080190726797,1.35514564645145
mp-28263,KH3O2,1.50601684917533,1.50000696331717,1.55043127870925,4.3984,14.015033011177,12.8190761726044,25.7055064514814,0.494653257245633,2.06052031503427
mp-768918,Ce(ClO4)4,1.49532755274555,1.55548034381666,1.59066851669353,1.4701,4.88305639697118,4.37154817604969,96.4819518765551,30144.6266456731,0.010397806176661
mp-770569,ZnCrO4,2.27417230437801,2.13729444157795,2.03791929428032,2.1082,11.2487042262318,7.32489723840016,1.68043767276798,3.56142518414764,0.875869532913167
mp-755323,DyClO,2.09238836022379,2.09238836022379,2.02413978519271,5.1688,14.6783311649645,9.87571467793691,1.74351504523888,0.612579726681441,2.20599455674083
mp-35249,Sm2Hf2O7,2.13252694473012,2.1325269236284,2.13252691190522,3.7274,14.6322551958817,9.59393600260834,1.57807264014345,0.665663833212583,2.1359441655867
mp-30026,Sr3Te4O11,2.06562071300614,1.93166432384097,1.91566907893822,3.2126,12.837152424872,9.01774110776193,19.4809405663456,3.95942049185317,0.303894436340232
mp-625801,Sr(H8O5)2,1.53716874155052,1.53716874155052,1.53318839351203,3.8483,14.4750586961607,13.068749483528,149.617599929704,3.61751588988354,0.283116492813459
mp-768863,PrAsO4,1.85022959656363,1.85022959656363,1.97642166553598,3.7129,14.2781208133123,10.4092873317685,3.84278896346135,0.495498771519596,2.27839614008175
mp-29877,K2ReH9,1.65520286672057,1.65520300869712,1.65213977616907,5.3027,12.5488997905139,10.4406912564317,66.5590877318322,4.03083510253239,0.263111793132438
mp-600071,SiO2,1.39221909195356,1.39511191307364,1.40194323708202,5.4993,12.525284114777,12.7412704590338,26.376551288506,0.605633530011073,1.68907599651909
mp-768317,Dy2SiO5,1.85725224458069,1.87513060878436,1.85491370419219,4.5469,14.5629532662589,10.7753007757296,6.41819501890335,0.504530556162198,2.13784755330248
mp-9323,Tb2S3,2.8294721274471,2.92454351480705,2.86737960688849,0.5791,9.10251406219565,4.70119281338175,1.10373345519017,0.46081364057008,3.07609049634019
mp-769232,Dy2(SeO4)3,1.64143231356032,1.65689725390562,1.65218448122478,3.7761,11.6590319607028,9.72512589158317,11.1375031565665,0.719374210196999,1.47988382626653
mp-28040,Hf(BH4)4,1.54384997651974,1.54384997651974,1.54384997651974,5.7442,11.7121231590891,10.5110336746226,2.47614035074772,1.85452840068351,0.943074973847233
mp-540625,GeSe2,2.4260843060372,2.03612106958304,2.58096574173312,1.4407,9.54748433475425,5.77792804969877,9.03237651823964,1.17717529984588,0.960203984433265
mp-757407,Sr2Tl2O5,2.3396801533543,2.38463167386496,2.28961758160615,0.9458,13.8262824463171,8.39578887319826,15.9645008516643,0.388275886187508,2.63812727162103
mp-768469,TmGaO3,2.0384680375223,2.03838241260074,2.05279108289178,2.9377,17.4521220647271,11.874435448699,4.3272422703294,0.370401092045387,2.93087012106497
mp-776093,CsAsO3,1.67057128551882,1.68876937442624,1.73643040171497,2.6682,12.0147553389766,9.72586899511771,13.1982549911036,0.740359185636237,1.42646333460924
mp-23791,B(HO)3,1.34188004680001,1.47781820600506,1.48956789371952,6.1885,14.343982497937,14.0534626898299,14.1289110308821,0.611830152859712,1.70521739410143
mp-3975,K2TaF7,1.44621556484502,1.44283462669843,1.44440523399772,5.6085,12.0222904983344,11.6942489360573,176.800748171666,249.865092962254,0.009658244340231
mp-4829,Na2ThF6,1.50630268870503,1.50630259576222,1.56163562971648,6.5272,11.8479148148072,10.7874630907742,9.34285733768129,61.7991702531999,0.123215083942594
mp-28974,TiF4,1.58392810758569,1.55860993516659,1.56353970208626,4.167,9.18655893872307,8.09635671165865,191.959105164317,510.31103125246,0.00716903214153
mp-567789,InI3,1.84900402108811,1.92596972977251,1.88593410542362,2.2746,9.01209620973378,6.58732217545736,7.21077283215474,4.83417536861222,0.345541903778021
mp-35759,Li2NiF4,1.54107370686804,1.54650435822212,1.50834290862522,5.365,16.160733320872,13.7304608095739,55.1886999782435,18.8773912607446,0.071093072596662
mp-24199,LiHF2,1.353155175876,1.34699195988692,1.4300444503581,8.227,16.6010735966208,17.2239433467256,4.71707249956788,0.744164543405419,1.55578472216702
mp-625468,Lu(HO)3,1.70243893869942,1.70243893869942,1.70243914722377,5.083,14.1635646139547,11.43890344352,8.15710218381663,0.460516619644526,2.29406684593568
mp-23216,SnBr4,1.59890187003456,1.60477934308739,1.59416745983601,2.7296,7.97880391349308,6.88297168404552,34.3779868299094,1.58814157394595,0.658755167248234
mp-759405,Bi3O2F5,2.10100599713566,2.02652696503155,2.02640324466775,3.3634,13.7012471321787,9.29010610486889,11.9929491993311,0.755645687720717,1.40675386938353
mp-768762,Ho2TeO6,2.00965191762156,2.00145103112717,2.01805745458349,3.042,14.0708910821399,9.71432341064032,16.4359077753228,0.555782875934757,1.860106178637
mp-771977,TmAsO4,1.84787693313164,1.84853616139907,1.99402682780348,3.5574,14.2668660078228,10.3781768128233,3.71792906432118,0.447278503868126,2.50471042179642
mp-774193,La2WO6,2.16410347257242,2.12435511861835,2.13011791457656,3.654,11.0632918840533,7.23360876476413,13.7586390988621,22.5240974030827,0.117078502572287
mp-769211,Tb2Pb2O7,2.41847076682767,2.41847076682767,2.41847076682767,0.9667,14.9687712953016,8.84372846206009,2.24280326004488,0.298964737540113,3.79074666642437
mp-754967,BaTeO4,1.76677564223644,1.85373180638408,1.88896707223816,2.1894,11.9295186387175,8.94420845226379,2.67695940150796,0.662681681291705,1.88257828413398
mp-757280,Ba2As6O11,1.97698215975764,1.83859500434435,1.95225455307447,3.2109,11.9685714781773,8.59895860911111,34.842704408651,4.73112298981208,0.240066721012268
mp-755651,CsGdO2,2.09269441151832,2.09268864621568,2.01407684312193,2.7074,13.4879062520993,9.08682939929559,2.38601103067732,0.53959859515954,2.27233898175392
mp-28251,Ta2Zn3O8,2.09821043510893,2.0987557313799,2.13072478044444,3.5099,14.8520358406601,9.83017193447948,8.05659570977393,0.823520934480229,1.33842011817627
mp-756281,TmAlO3,2.0197002475615,2.00465267814652,1.98083291067167,5.7744,16.2295609828869,11.24431329442,2.37405975538825,0.434026931610424,2.72522388097961
mp-756459,Cs3TmO3,1.84683235568364,1.83468175714482,1.83787879360963,2.3349,9.90210192990603,7.41151022823644,18.246842642244,0.423589313649438,2.41558121653638
mp-780387,YbHfO3,2.10303977613359,2.08008054411362,2.10155317800906,4.5175,15.2858895231967,10.1769726038355,2.85663699468395,1.00912841760145,1.34101613575909
mp-24308,AlSiH9C3Cl2O,1.47127734638986,1.46323287961965,1.45894656516269,5.4038,12.1609968448075,11.6252686291838,42.1630918741634,0.587786913915327,1.72501423299958
mp-15408,KGaF4,1.44683324885766,1.44099595766262,1.4281422968318,5.2209,14.9943520378187,14.6611839504382,34.6717184737734,0.628831399286957,1.6190933300464
mp-542463,Mg(AlCl4)2,1.53650175398533,1.54069731939794,1.53467181182167,5.1767,11.5624137124316,10.4277062032179,19.7364156645142,0.556085429421377,1.84895260595474
mp-752458,Y5Dy3O12,2.01071831443392,2.01080715385638,2.01033245260579,4.027,14.193806226338,9.79529968217095,4.65714852005721,0.509877732193716,2.17597817172756
mp-4929,KBF4,1.34071875872608,1.34079616273317,1.34225140342635,7.9621,14.1355670594098,15.2336429943485,49.6998087486924,0.61785129760251,1.63863322358147
mp-5900,Ba2ZrF8,1.59802642969383,1.5852350078143,1.61395578316136,5.9388,13.1497415340167,11.3453522629496,46.7920190975992,111.360580247847,0.030351004104861
mp-541005,CsH5O3,1.54005366464938,1.55539544168035,1.55245774821732,4.5938,13.5355281695652,12.0984841575229,45.0480021724922,0.456834411980175,2.21117549753954
mp-758316,La10Bi8O27,2.21268990823387,2.16999582027247,2.26605832890506,1.2795,10.5199334255822,6.67660626350504,443.544083659151,213.648915844793,0.006935143385523
mp-14613,Pr10Se19,3.87314257548054,3.87314257548054,3.07999288635542,0.4591,3.27521060674131,1.42966147812692,7.98408610120984,0.391927482442981,2.67674156864717
mp-691119,Bi14MoO24,2.38709870763653,2.38820200150657,2.39480630740776,2.6369,12.0142886310095,7.16618457722187,8.46284145108138,1.11193365726496,1.01749785268317
mp-676666,Rb2CeO3,2.10144084142286,2.11321275313206,1.88009550821228,2.1338,6.23029932962804,4.26040637805398,4.06235882448033,551.21735436227,0.247976566911975
mp-757192,SnP2O7,1.66485345901674,1.6549424763417,1.64265178294123,4.0359,14.8104112441573,12.3225254722499,14.9167370367181,0.755661139440206,1.39038327302476
mp-757111,SbOF3,1.55273243670634,1.42232776813223,1.52559451690153,2.5587,10.6964521172029,9.92797336845342,172.62342811899,0.893288753781628,1.1252518052933
mp-29832,Sm10Se19,4.04603812142199,4.04603812142199,3.11063386787966,0.4181,2.52221875710002,1.07420555060938,1.96672188776738,0.343957181273947,3.4157989289216
mp-752692,K2SnO2,1.88056746754803,1.97906790686929,1.89439961465368,1.5542,12.8259889338399,9.23518897915083,4.27961391246917,1.12400253446787,1.1233436474018
mp-776084,BaSiO3,1.66133548388036,1.66044812927113,1.70038759110974,4.578,13.3847721529661,10.9982065045563,21.3478342279994,0.470647235604065,2.17157676944986
mp-18451,KEr3F10,1.55387029381477,1.55387038069461,1.55387027450814,7.0612,13.9951820003688,12.4674099574681,18.2293795300694,0.718303938573473,1.44702483981641