MP_id,Formula,Ref_index (1),Ref_index (2),Ref_index (3),GGA direct band gap (eV),Effective_frequency (eV),Average_optical_gap (eV),effective_mass_valence,effective_mass_conduction,effective_mass_transition
mp-769780,Gd6WO12,2.20079061021261,2.20079047844178,2.14536974668704,3.0426,13.9126561865773,6.7458612527116,4.3926030726846,11.4542823874661,0.314959035687285
mp-769809,Gd3TaO7,2.2218723523191,2.222893758145,2.18556139698705,3.0677,14.5731904623833,6.69598484300465,2.64785574072089,437.25351116405,0.379951081924436
mp-21276,PbS,3.94830829596677,3.94830839600961,3.94830831876134,0.5829,3.53600095928568,1.44711314846213,0.192444575696824,0.21057267016732,9.94525566544716
mp-772036,YTa7O19,2.3383703278138,2.33841509360507,2.41814738177804,3.1646,13.8136737833727,8.31010723879926,12.0396282047227,4.83938734899306,0.289696769883006
mp-15622,HfSe3,3.10278926773959,3.73749090567455,2.23160590830908,0.6631,7.77012374540559,3.8619726219939,7.51166521319062,2.72558494890127,0.500019993422295
mp-650178,Se5SO3F,2.13286726497455,2.09167969823298,1.90088097733656,1.4292,8.73815579757966,5.94903298283548,11.1644699243136,7.16541751013957,0.229129068293101
mp-767114,SnP4O11,1.60286722157514,1.61090373393322,1.6222558429545,4.4756,13.9484753158342,11.9293266843298,20.7698499763166,0.929391050872428,1.12412006006306
mp-22898,KI,1.67239875627794,1.6723988698872,1.6723988340106,3.8513,12.875417553909,10.5905516900982,2.72704729504666,0.354267026342062,3.18942651642523
mp-754815,YBr3,1.81185320597448,1.81549578627988,1.66626548004812,3.9934,9.00638978069766,7.01794812680497,5.48176580983218,2.97619252532781,0.518422738683728
mp-27397,IrBr3,2.40311483703963,2.46131798230135,1.90727589247073,1.6835,8.19703899690376,5.1235182233629,3.08692700041064,2.58371124426997,0.710986914777726
mp-865188,MgH8(ClO6)2,1.46318827906733,1.495962489503,1.48789285568552,5.3052,13.3188686195557,12.542756682244,10.6750625257823,0.626632859213482,1.68950703913723
mp-769077,Mg2Te3O8,2.01137837315608,1.85250910119222,2.06406101411756,3.4781,12.9519766253128,9.07775629236855,3.37494380196469,2.36860950483569,0.718489859306291
mp-720294,AsH18N3O7,1.5467637570101,1.54618021912066,1.54221418745906,4.2101,14.5664171572176,13.0609363023542,273.707038267915,0.544242134242788,1.84107100155255
mp-24113,SnH8(NF3)2,1.45034278362048,1.45034297667828,1.46683447600607,5.1147,14.3057565002407,13.777591334267,18.5492689686453,0.704574315225132,1.47320717962198
mp-30086,GeCl4,1.47062808690709,1.47613464832989,1.470318196854,4.1582,9.45574090619913,8.97912138853612,48.7386986051212,2.05632346399856,0.506822391122852
mp-23798,H4OF2,1.3321957476287,1.35911469346777,1.39407525980486,7.3073,14.7938073654716,15.5899575158828,9.48499635519068,0.605110295701388,1.75802094935461
mp-540829,RuF5,1.65436239681637,1.67441147869931,1.64956508510577,2.0099,14.8591210281479,6.42055071863822,51.6490868210354,88.5711756550954,0.030651781353681
mp-505551,InPH2O5,1.732979425729,1.74329319679737,1.72332563086609,3.4359,16.5941398706989,13.1620520148158,10.9620621682001,0.482146943623651,2.16528020687152
mp-13634,Cs2LiAl3F12,1.44913764701632,1.44972319081954,1.44666113170984,7.2091,14.3230538216398,13.8828503408939,12.9554097761473,0.505146646271458,2.0568109922103
mp-22887,EuCl2,1.95613966781516,1.95646701224426,1.95174205775251,1.2298,2.91104020213661,4.43484477862974,234.724352870231,0.910446121461522,1.10262295026556
mp-28483,WBr6,2.38275738378879,2.37928523931033,2.40008380895335,1.1435,5.83384956189955,3.48286072600701,7.45786998521558,2.27521167744892,0.573606086851982
mp-8866,La10Se19,3.66591908394062,3.66591908394062,2.99162174246678,0.689299999999999,8.63443441978913,3.90124856966692,52.1375853077405,0.448418584586715,2.24923924364412
mp-755363,Ba3SiO,3.84010328116315,4.04217564314071,3.91411133592288,0.4243,2.30571400275066,0.946381375084087,0.9626546852928,1.07210418322501,1.97153926356125
mp-774567,Er2TiO5,2.07303416276722,2.11310683118483,2.12148335605067,3.4037,12.2459623109556,8.12747069872071,24.9835138347692,124.112936494734,0.048083573097889
mp-23309,ScCl3,1.77969810080249,1.80001274439933,1.67071189018334,3.9009,8.39217607002115,6.59237626799802,3.8637476676537,11.48406686352,0.345893239706266
mp-768505,LuGaO3,2.0369445844205,2.03691272272525,2.05463619407427,2.8932,17.1145733834148,11.6466795168216,3.88488654951275,0.361188938139271,3.02604184471394
mp-15318,Rb2NaHoF6,1.44051809429802,1.44092049398987,1.44135814078251,6.5309,12.602188952533,12.2971213774745,8.29720492301856,0.51621619890071,2.05769535427033
mp-755459,Rb2O,2.00184722693816,2.00690777815026,2.04431999452141,0.4001,0.972636015450238,0.669144613452921,3.20256301183381,0.334172100578321,3.30471994862643
mp-38684,Li2MgCl4,1.66138460929431,1.66767687517696,1.65472152642068,5.3212,13.2084716021565,10.9403808195236,18.0240259889065,0.429560344406706,2.38344313116763
mp-673656,Y2Se3,3.13219757039686,3.13182248379438,3.12616412237106,1.6194,11.1471999666857,5.39986516814133,1.70351817375813,0.723873474560655,1.96847733859044
mp-7289,K2Te3,3.31598145350664,1.93485822478031,3.83845638896679,0.7566,8.14601525207106,4.0429963946651,2.52544030568307,3.63201632874225,0.671299713864742
mp-23259,LiBr,1.84533330322736,1.84533340348025,1.84533333032274,4.9286,15.0058388464631,11.1997043922062,1.29999286640336,0.361932161533671,3.53218370358569
mp-625147,GdHO2,1.93659289216913,2.02314921595022,2.01070495349268,3.5372,10.3322124023931,7.19552015206251,12.6563927927612,29.6272813728779,0.112764129264103
mp-27725,AuI,2.23598837653508,2.23598837653508,2.00340226614627,2.0853,10.4702734551454,6.79473628327906,13.101311467297,0.76379013456383,1.38558840462607
mp-561375,Pr10S19,3.02495989394901,3.02495989394901,2.81989340933305,0.5107,6.99744018265997,3.53723551010884,32.3369303845038,0.413639910078894,2.44848608459404
mp-674492,Na2U2O7,2.24042735655499,2.20136541718998,1.84800685875351,1.6682,7.55296237511048,5.02504042068113,4.98433558339028,11202.8989494919,0.20071780843514
mp-619575,ClF3,1.52201764115926,1.49841682118161,1.51914516752021,2.5705,8.86213807778171,8.14147173082646,35.2835959888196,5.85458426614288,0.199148103493613
mp-22882,YbBr2,1.80599526300597,1.7779064992288,1.78609282513536,4.4989,11.41763812137,8.77336639375156,3.4892591666529,0.312807263296819,3.4834505019125
mp-696497,Mg3Si4(HO6)2,1.61818059251741,1.61925135479332,1.55910791480256,5.1766,15.3266213528637,13.2255683457888,43.7531463232334,0.488854699224239,2.06845310024196
mp-758007,Ba2CaP4(H3O8)2,1.63977390209748,1.62004868445365,1.65429668741734,5.4679,14.636739343044,12.3046135789442,56.0666250086186,0.497703047812731,2.02706613434151
mp-600029,SiO2,1.42558556039264,1.42310461316096,1.41145307750559,5.4293,12.8962199568299,12.8259113068891,4.78547537917043,0.574410188021242,1.94988185252355
mp-757220,LuH6(ClO5)3,1.53736116771564,1.52451718258601,1.54766812333911,5.4212,12.982706873982,11.7154414133953,222.827588879158,0.703475084037406,1.42600222864595
mp-760417,Rb4I2O,1.70674105534495,1.70674105534495,1.7301983730197,0.8507,8.48273171119593,6.80178616876718,189.267366336696,0.362712565559369,2.76228754728749
mp-27642,PaBr5,1.72003175842773,1.72772419673975,1.71976812099771,1.9641,4.7131983753068,3.7616504630271,23.8969175459459,1461.43187701711,0.04253066166574
mp-18506,SmZrF7,1.52314000997938,1.520402078399,1.52794732566277,6.0508,12.082206974701,11.0085346703149,387.486903530454,27.492312315018,0.038954537123271
mp-24618,AlH10N2OF5,1.42890494785343,1.40596297959797,1.39753283682352,6.1343,14.4366585948263,14.483361651456,82.0188307064443,0.567262761251338,1.77504380520916
mp-27455,YCl3,1.54215311172399,1.64388192094201,1.65864479621165,4.9904,9.50502923534092,8.11338751610912,6.99672674865336,5.48702694419538,0.325172032286385
mp-557539,MoF3,1.47685086247732,1.46268565659201,1.54700003878474,3.585,16.6452364056655,10.8248726735167,2.4622078770491,2.66749806059593,0.781022671996668
mp-755404,Gd3SbO7,2.13593009482988,2.12262511056475,2.1338181459534,2.6668,14.941498940733,9.80351929564213,3.23284415296209,26.3800588042133,0.347232570399708
mp-36526,AcOF,1.86875904813863,1.86875868693633,1.86875913108137,4.9425,14.4770903152543,10.6778422233898,4.8937807010488,0.375091422390641,2.87035770171367
mp-866308,CaB2(H7N)2,1.61305693947858,1.6167037792991,1.60055400721125,5.6947,13.3820721273358,11.4595933169528,4.68669833533145,1.08919920575632,1.13147552492131
mp-676801,K7Th6F31,1.52862689365326,1.52595936053356,1.5294559849829,5.8521,11.007757082492,9.99747913608091,1475.75986504515,143.699167704658,0.00763659956513
mp-17297,Na2GeF6,1.36846208570059,1.36846204185575,1.35931514741799,5.7995,12.9610039872944,13.6063491543398,144.30537849214,0.754085710059451,1.33303895168978
mp-505366,AuBr,2.30474769551897,2.30474769551897,1.94917000284737,1.6885,11.1590235369965,7.16383473959326,20.7180436531433,0.697852634956671,1.48123439680193
mp-770806,Sm2TiO5,2.09795614825477,2.12722243312729,2.15282741296185,3.3989,12.4910914261657,8.21153313385917,24.8402849671002,69.7455410249272,0.054595021269788
mp-677391,Tm4Zr3O12,2.13866822345122,2.14295372091886,2.1479568687476,4.1822,13.599587394424,8.87896221812224,6.80944949128835,13.8382291208178,0.219118331258944
mp-756277,Er3TaO7,2.12576744965201,2.14850607166934,2.11812596178792,3.6347,14.0972844515323,9.2495751365352,5.92798379568137,16.7476799562247,0.228401182227479
mp-864801,YbO2,1.83936281358518,1.83936281358518,1.78000752526499,3.2995,13.4826386668185,10.1980426731765,27.7124531003038,7.70947754533319,0.16579533607257
mp-1672,CaS,2.23209963039287,2.23209971103443,2.23210002688052,3.1836,14.0221026667061,8.84646155518778,0.881619608561373,0.440989583239279,3.40190330108445
mp-768950,Sn2(SO4)3,1.72358295709838,1.72358293098998,1.74125140344523,2.6113,14.0807090583239,11.1925401258238,20.3402581773646,7.04287320032035,0.191151090306803
mp-9254,Al2Te5,3.42316629306845,2.35946009926,2.78595649642991,1.2967,9.1078746177396,4.72595515306296,1.22370634396408,0.83331819926056,2.01721131358728
mp-571235,ZrI4,2.06366455365207,2.02618808356974,2.13851439555594,2.0272,6.84248763967578,4.59119357286794,5.67248818725218,12.8658519683515,0.254014609956942
mp-774557,Er2TeO6,2.00531900454766,1.9999584020674,2.01744848261362,3.0442,14.1130833168692,9.7526782968651,16.2493009109333,0.550717281689176,1.87735483647642
mp-779519,Ba4Hf3O10,2.13059947901993,2.2194510289709,2.13260195770331,3.6087,14.0880736485981,9.13382021577614,4.72995198716543,1.48824840892814,0.883349474156
mp-438,Nd2S3,2.84651145439466,2.8144846544261,2.86995675925614,0.7596,11.0571695217728,5.75664903811184,0.89710825499946,0.403907300871212,3.59050828319636
mp-22859,HgI,2.42365545612408,2.49756668379445,3.39313749942439,1.8773,13.987390833552,7.42660923150095,0.979941866442637,0.718625004456384,2.41201504468267
mp-286,YbSe,2.40415814579657,2.40415846815471,2.40415813331819,2.7843,14.647418545677,8.69532514072382,0.671464841292071,0.360793915887097,4.26094661615312
mp-8812,Rb2GeF6,1.39509672066133,1.39509671349337,1.3950967636691,5.9669,13.2956084491866,13.542516851507,18.1478060415701,0.705175501404044,1.47318977996747
mp-768941,Sr3TeO6,1.91075207182931,1.91123510850968,1.89189378930214,3.2198,14.3033442900128,10.3653575926903,5.65490174944424,0.518053107628949,2.10714175926827
mp-754883,KHoO2,1.94141642364538,1.94141628199621,1.78706660760029,3.9759,13.7364838447833,10.02582462899,3.66557229507634,0.51523606767796,2.21366661147946
mp-568108,InBr2,2.00125674514791,1.92355711378685,1.89536841273669,2.4224,11.6414239763782,8.29536239257604,10.7724421571981,1.08222400669475,1.01685257812148
mp-27863,AlClO,1.64325530274513,1.77536786892182,1.63246304092926,5.8505,15.0382348612067,12.2837669642934,28.9741032444737,0.432370178288508,2.34734654065166
mp-766341,NaSb5O13,2.0971231651956,2.07939865586183,1.98441739309048,0.7792,12.5924451658756,8.52980015683784,2.2743875121055,0.325179545330389,3.5149029903132
mp-7384,SmF3,1.62559948941921,1.66060418522898,1.6470593674789,7.7936,14.8980044172588,12.4727246292645,16.3360085256061,1.55994056472697,0.702264528379671
mp-2418,PdSe2,4.0808644108816,4.11995679346277,2.5818904856713,0.9111,10.2094223498168,4.46951228709395,2.47591795251688,0.710282316983824,1.81178149029155
mp-707463,KNaReH9,1.73441394424745,1.71084622920939,1.72290388878776,5.4761,12.8775918026672,10.2764542497711,7.27363919059978,3.89682101625788,0.394102194292649
mp-23184,BCl3,1.47284513103041,1.47284511066167,1.32601259420867,4.9168,10.0349305252984,9.94461449761911,292.424216500875,7.43978820794393,0.137832117847672
mp-29254,PrIO,2.17953481963469,2.17953481963469,1.93739309898637,3.8868,11.6544803095859,7.74673050013506,1.49986189659305,1.31950588345313,1.42458749925672
mp-567744,SrBr2,1.75555254549672,1.75666218437126,1.74759223504798,4.4697,11.6478149561684,9.13366093638472,3.03522715160018,0.360469012066622,3.10362819928686
mp-31064,B6H10N,1.58254378770384,1.58254368976025,1.58254365816555,5.8088,13.6032548316648,11.8718235718246,11.8195154768467,0.616515110814381,1.7066260964657
mp-733968,BaCaP2(HO4)2,1.67336296720108,1.69791886143007,1.6655160311447,5.327,14.6889556565901,12.0335776451807,19.9302334294171,0.494337196127477,2.07308571999037
mp-23230,PCl3,1.54734339110619,1.45266537440665,1.56279714294594,4.1522,8.92475316427548,8.1498143704136,4.6561751973634,2.54804264144239,0.607226661217468
mp-720,TlF,1.97021696267188,1.9446026946397,1.93326394990441,3.2411,15.0048757840239,10.6458233883806,3.76625290674476,0.519238493503583,2.19141316754299
mp-768978,Ho2(SO4)3,1.56636628538794,1.56634916605462,1.54571553010248,5.9222,12.9789427183579,11.5149351051064,7.86383226140177,0.548327768497732,1.95089117718139
mp-568848,GaCl2,1.84984718558047,1.74257029700383,1.79348070243312,3.8767,13.2890196015815,10.1821607189269,10.5459472601742,1.39724997511558,0.810514705483296
mp-768419,La(ClO4)3,1.61662931125227,1.61663780420971,1.66922308275437,3.9509,9.75497981516516,8.22138677990045,27.3511170529799,79.1563591088001,0.049194801819904
mp-643655,LiAl2H6ClO6,1.54754613501504,1.54754608655122,1.59388140713166,5.2046,15.0046399290649,13.2783058473098,13.26227397362,0.544817157941744,1.91088002046168
mp-27390,K5ThF9,1.44483144691691,1.44198980232178,1.43105750757962,5.9843,11.5102460567109,11.2480841066916,264.157649365776,0.631190673614684,1.58809293101409
mp-23004,CsMgCl3,1.62203020317132,1.62203016309809,1.63979862483172,5.1261,12.1800786009271,10.3070689342875,2.95942785344905,0.391778140668346,2.89036817294512
mp-560314,In2H10S3O17,1.56835781950421,1.58200384323174,1.57005965173302,4.0302,14.8792616393577,13.0688371173497,62.091439154854,0.726243253692022,1.39305438728874
mp-28127,Na2S5,2.05048360393347,1.88742083277683,2.12998276753593,1.7703,8.98854171400989,6.17051731910474,2.34293258842443,2.3492153179605,0.852489574364176
mp-28778,KScF4,1.43946807884024,1.44293865080952,1.4487497713546,6.1209,11.0095974389623,10.7164696888498,54.0347196113061,13466.5305142387,0.018580877757287
mp-773285,Lu6WO12,2.09376293309438,2.08973351171866,2.08308591517489,3.5095,13.6611436116408,9.11794201105187,4.63384224086285,7.17300534788845,0.355215213847029
mp-17077,K2YF5,1.45301489324783,1.46861036017046,1.45556620598309,6.8082,13.0483759163429,12.5316667677268,58.9310745079887,0.564767337439497,1.78760961651462
mp-18687,NbF5,1.4945304781101,1.50294107336249,1.50378605858679,4.5876,9.93333048908971,9.2181963411792,122.880914500127,108.802306234379,0.017328941918118
mp-23364,CsLiCl2,1.61933197646437,1.61933197646437,1.59569769380043,5.2725,11.794813266706,10.0911899343957,5711.85296186721,0.433624721096881,2.30631665583216
mp-28626,LaSO,2.49626161689836,2.45261883708007,2.28018203439989,2.0045,11.1487261248696,6.60611463041247,24.2476267202508,3.03150156041809,0.37111068123079
mp-707483,TiP2H4O9,1.86931673346172,1.88895864168594,1.69541243949666,2.9914,11.3549712336339,8.59630278605446,21.5109953493591,829.999784378936,0.047692673069639
mp-6952,YbRbF3,1.47225513413946,1.47225513413946,1.47225513413946,6.5258,14.1557096161951,13.4433752045474,3.21849783060889,0.488674372081325,2.35705640635141
mp-755804,Lu6TeO12,2.02062980775797,2.01874571206975,2.01553884854646,2.8746,14.0073305585833,9.63403939586483,7.22659059173025,0.820544723428406,1.35708045526075
mp-770754,Ho(ClO4)3,1.56681868127745,1.56681891104237,1.56370452451862,5.8121,12.5921077131949,11.1209667093174,19.5527711173262,3.94843804580295,0.304408351567772
mp-864766,NaMgSO4F,1.52384982855923,1.53778738452362,1.53141290970136,5.6118,14.7869748122853,13.3991814159066,14.8316761975251,0.528140628493445,1.96085835560903
mp-558928,KrF2,1.59119512317,1.59119512317,1.32428044990478,2.9017,8.01410351012795,7.42643780995538,3.81550035188582,7.51685369010975,0.395123207910779
mp-1249,MgF2,1.42118772510883,1.40628381203795,1.40628381203795,6.824,15.6029250678401,15.6466933406285,3.48317092397664,0.553131765704419,2.09498221625123
mp-569890,CrCl3,2.10321454920795,2.10321439468258,1.63953805689286,1.4724,17.275671631658,5.14195978283397,49.2085429606865,15.4661149038456,0.084979153674444
mp-254,NdF3,1.69322790551066,1.69322793799299,1.67112184474981,7.6447,14.9881948374213,12.2267186487886,7.96791776195907,10.7968825029105,0.218122631179329
mp-771106,Dy(PO3)3,1.59739415924812,1.60563299978544,1.59599461778541,5.7515,14.1079073716767,12.1670301682905,30.4684284071994,0.560204702331675,1.8178826336905
mp-754113,TmClO,1.7008311056657,1.61802242567895,1.80773095619896,5.2921,11.5654083760995,9.3048971418428,6.35132219310307,1.20151267051848,0.98973172153435
mp-734042,MgH12(NO6)2,1.5108185662084,1.53726629443308,1.38090468534219,3.5261,12.3255969725615,11.6654778417182,106.803663239028,30.3439989577,0.042318420101592
mp-8426,K2Se,1.81523929827447,1.81523900079301,1.81523911923471,2.2009,11.3520926470145,8.606154841822,22.5419410718146,0.334094835147268,3.03752385690863
mp-557780,CsSi2HO5,1.54137980718576,1.5289829135736,1.56618807619009,4.8635,13.5494689993507,12.1449071946936,14.4759852298569,0.50043042346426,2.06735971378054
mp-23942,KPHNO2,1.57856057533438,1.58371869029825,1.57629660914436,5.2688,14.4716570998128,12.6565168608051,39.4757452959692,0.525489413934288,1.92831991769405
mp-1270,Dy2S3,2.82156358425608,2.92062955370927,2.85934610356984,0.5938,9.59626052571998,4.96487746501094,1.09463908055002,0.45271808764761,3.12242327501175
mp-8387,Tl6TeO6,2.59123743412293,2.5528190417654,2.61537753106507,1.5686,14.9318655545373,8.36398661005665,1.18080179812828,0.633600303225457,2.42516425215382
mp-29331,KH3F4,1.3276010884298,1.33199421545291,1.32021432350963,7.3637,13.490094971449,14.7831647531973,19.7039266857329,0.614951339609865,1.67689623031265
mp-770998,GdTa3O9,2.31208830497453,2.39915044338616,2.2714985978424,2.9347,17.5469517163818,7.13230016944921,14.4597288032368,60.0229634663223,0.085817880637109
mp-755417,Ba3(BO3)2,1.85422968911621,1.85422968641967,1.68219972060395,4.1762,13.0416523381663,9.98409901484027,12.6567040436178,0.494073734340992,2.1029989089326
mp-10543,K3SbO4,1.86529243283727,1.75867205584213,1.77470201160646,1.953,12.6059163353566,9.63670404561227,14.2694986149876,0.438044935545674,2.35295036432707
mp-28542,Na3ErCl6,1.64628960392757,1.6467328471856,1.64917199224338,5.2282,11.5171537924474,9.62383706757731,11.2590276935084,0.416769188021841,2.48822723841588
mp-7896,Cs2O2,1.75669383217452,1.75889535220263,1.75741664098187,1.708,9.13470806247234,7.14530682405508,2.21072763154773,0.639577699250658,2.01587144560266
mp-2072,KTe,2.07564105278345,2.07564107205461,2.59823781051697,0.6627,6.07496708775958,3.8074873257489,1.57866349665167,0.442659963410911,2.89251757137704
mp-28320,Pt3I8,2.83409342647697,3.97345700744327,3.97345700744327,0.7141,8.23134852215732,3.60395667106087,11.3394587977218,2.96763525992353,0.425156264362827
mp-23218,AsI3,2.48677544422491,2.53657257928883,2.17030841817471,2.3114,8.3698490548411,4.97917643120999,6.13438789583836,4.49933606791515,0.385270463289595
mp-28582,CsB3H8,1.5577046510812,1.55374787208221,1.57980414925395,5.9805,12.5091356936642,11.0638394273413,16.6918761661786,1.9489293428582,0.573011617005719