MP_id,Formula,Ref_index (1),Ref_index (2),Ref_index (3),GGA direct band gap (eV),Effective_frequency (eV),Average_optical_gap (eV),effective_mass_valence,effective_mass_conduction,effective_mass_transition
mp-6126,LiCdBO3,1.85508263158276,1.85508266931692,1.76388536475588,2.4072,14.8095823553754,11.1718157828901,2.42735169717517,0.516621465590147,2.34762482890717
mp-27230,As2SO6,1.64810883742549,1.82464052350045,1.88282976660133,4.4376,12.8526456428314,9.90182589394503,3.24651935557101,3.09272605499588,0.631361528991438
mp-14168,K2GeF6,1.41289197393148,1.41289201639757,1.40392303207833,5.8903,13.8107723674554,13.8672821883266,19.1028956646155,0.716431240579388,1.44815544673141
mp-20546,Ba2In2O5,2.12411349037663,2.12992675460918,2.19191039050414,0.919,14.7160466386246,9.58709617781323,2412.77405426325,0.252402006893222,3.96234809310804
mp-3996,GaAsO4,1.74962616292738,1.74962636868561,1.78138191301023,3.1376,14.5780614183579,11.3869526503272,14.8170169061828,0.463103852520735,2.22683283387167
mp-696946,BaSn2(HO2)2,1.97593766855131,2.18065447744479,2.11819839486296,2.3086,15.1034908607176,10.0692153152288,3.01038280373825,1.20569460775596,1.16158108989633
mp-632229,HBr,1.58231613149838,1.63670113337775,1.44776123031389,4.681,11.5665196858077,10.2908979049936,5.14120846466162,0.485425942216489,2.25455327137586
mp-2964,NaNO2,1.38515818591235,1.5574030338997,1.51934236431425,2.5905,9.25256932810463,8.67801499747957,21.2201539128474,4.83870375323325,0.253791931328689
mp-23162,ZrCl2,3.27928915163027,3.32612131318147,1.99569946885797,1.4993,11.5572615706132,5.97967939271564,116.512864953115,1.00087356297807,1.00770994267341
mp-23297,BrF3,1.59574313095811,1.48465809868804,1.85313733975655,2.3619,9.7955236961204,8.20040377738426,2.84076143395626,3.59447990338885,0.630222661508572
mp-30530,TlClO4,1.58614410127201,1.58614385539269,1.58614399094155,4.5806,12.4663074057763,10.8522259683578,4.86343440159838,0.818591973050623,1.42722584355329
mp-28099,SBr,1.63125022298849,1.6594979993962,2.1264364039397,2.3,7.26427670697024,5.53495791394948,15.2482150122703,13.7788938082733,0.138156213138189
mp-19241,BaNiO3,2.16392529676974,2.16392504722322,2.85979125986496,1.2746,8.06492213584121,4.80101755391332,4.90177588970225,2.48873194184782,0.605818746984984
mp-625136,CsHO,1.66021481441409,1.65091782351515,1.65043759954747,3.4329,11.410179296921,9.4952362301719,15.403675826063,0.399075415621871,2.57071160972138
mp-27529,PI3,2.00537987673159,2.00537986426512,1.70078371346859,2.2801,7.01849133565839,5.08808134504463,7.24681002861349,2.87746101015094,0.485520351555098
mp-549697,RbGeIO6,1.84212480033249,1.84186611348382,1.55751450073507,2.5225,12.4399790357405,9.78855017759008,24.009643257802,0.792366602513909,1.30369201773314
mp-561926,NaNiIO6,2.54153278161034,2.53950248867765,1.66510171761367,1.2096,7.89425763211161,4.94978965333118,6.45520788399032,4.86994688181551,0.360254727423143
mp-2340,Na2O2,1.53442595455108,1.53442594803399,1.66321595110196,2.1688,9.21490576009901,8.07144977241548,4.3706554869167,0.984777835738245,1.24425609309607
mp-29966,NOF,1.4010075517284,1.48331933851076,1.29432390072964,3.2351,7.24315094623236,7.39376618461252,50.5359605041916,14.466657867373,0.088912355463629
mp-29946,IO2F,1.85745906011411,2.09706043785104,1.98657901428561,3.0204,12.1951105675395,8.53034170351502,2.82981189627407,1.73825817000495,0.928668916115844
mp-12177,Te2O5,2.23815021837231,2.07438575245782,2.35264425275051,1.733,12.3191954132603,7.80239770933142,5.89711447137146,6.01909087376594,0.335712506241378
mp-3288,CsNO2,1.52799634816318,1.52799629253477,1.60523914106279,2.4637,8.90659733850015,7.93505078816997,6.71635674454332,8.96785296530575,0.260399655587259
mp-38487,Li7BiO6,1.92069481178036,1.91427620525357,1.94086615458151,1.8643,11.6329996844348,8.34728108637984,8.89875741021288,0.846732129881284,1.29338628793458
mp-23317,AsBr3,1.60163010710963,1.71173861614442,1.71273611802869,3.2834,7.82156491697786,6.42173297633689,9.69745653840221,3.17603964312118,0.417977353692202
mp-14175,K3NbO8,1.6494612878149,1.6462110101685,1.64651361974324,2.7187,10.296648981287,8.60398796247818,9.83260405543579,4.12304538663125,0.344241626458368
mp-561942,Cs3TaO8,1.67209643262582,1.67248360530081,1.67241378851049,3.1633,10.4764578327388,8.61767146125619,366.825802720806,1.89559301802694,0.530265487804183
mp-752580,RbNO2,1.50306600653464,1.50306622608586,1.57441099145045,2.4429,9.21534094414014,8.37702880691797,6.14666200233697,16.7008733501518,0.222567036390463
mp-21521,Cs2PbO3,2.10901144852274,1.93094016220079,1.91229318097409,1.3906,11.0246465721358,7.69870019442942,17.5310365313446,0.562219063703973,1.83570781166598
mp-6800,KLiSO4,1.48674439632373,1.48674437950846,1.48840607362373,5.3245,13.5896040323963,12.7457643721186,8.5784909632153,0.618232490129524,1.73408509105612
mp-9062,RbS,1.69525522562238,1.69525529345878,1.84028109265949,1.7125,9.01945454505013,7.11149497765693,8.16931750912397,0.951090505012223,1.17383389499269
mp-4690,K3TaO8,1.62117625815332,1.62275905481991,1.62264493035291,3.1344,10.6713741616599,9.06477377347978,11.9588007603029,2.31853806854417,0.514926692154455
mp-8673,Li2SnTeO6,1.86492809244753,2.00186091924489,2.00143815792545,2.0439,14.2120113252379,10.0520104112666,5.06444903072569,0.462634845745054,2.35898679475668
mp-23280,AsCl3,1.51110616437099,1.60693622773276,1.59433734824221,4.2273,8.80703767461137,7.75022888602378,24.3072793477521,10.766241890172,0.134022860895828
mp-561664,TeF4,1.53064627853727,1.69054629927725,1.60524537376689,4.1512,12.7048679357921,10.8891664164721,1.22640140475889,2.34922318288781,1.24106634247045
mp-556422,NbCl3O,1.93866562614598,1.81744434302677,1.81744434302677,2.8553,8.59180978401441,6.37187737788912,15.3548333349079,20.2367383084943,0.114541151118903
mp-9063,RbSe,1.75077485417172,1.75077483989233,1.99244504064729,1.2034,8.11493386610458,6.10047026663348,4.79545522579342,1.33981064631129,0.954904901993574
mp-1287,KS,1.68594912438069,1.68594912438069,1.88860219739362,1.8193,9.29360181353527,7.28665004492269,3.03388464666833,1.24436748982758,1.13323154575406
mp-27988,IF7,1.4081451132607,1.41146210717823,1.39943480019614,1.4967,7.91847154986527,7.97791580282877,293.475876079628,1.6647642413375,0.604093090859892
mp-614803,Cs2TeO3,1.70577662371132,1.70577633058968,1.6674355249904,3.6811,10.4462170471472,8.48470716177939,4.74288411051334,2.78881030154866,0.569418015918312
mp-780545,Na3VO4,1.63359323578423,1.61189709659147,1.63415779531843,4.1011,10.3459807967469,8.76310558108873,16.8666320048844,21.4768620689514,0.105850396239502
mp-29172,SeF4,1.48253600293551,1.52063566642375,1.55340844918521,4.1733,11.7310514929032,10.7296491407988,1.730017425905,5.33778685704598,0.765372421163619
mp-29365,Li5BiO5,2.06514760005187,1.96972205399645,1.96844731958973,1.6299,11.3095562845442,7.8377576837459,2.65169753807854,0.598152645319775,2.04893097272557
mp-27367,SeOF2,1.58343954099928,1.5860891715159,1.51899782751655,4.0833,11.1755249037972,9.89080783395184,10.1496522807221,3.02574100862188,0.429023095992434
mp-22869,ClO3,1.85774292624141,2.22156096922862,2.01455919744246,1.367,8.27329069147018,5.65816949170674,78.9517177395828,18.9871403180918,0.065333194342504
mp-4117,Li2Si2O5,1.58687661146039,1.57347701921572,1.57636340353359,5.255,14.7299211097428,12.8880139744434,8.89337931360672,0.565581179590094,1.88053597651516
mp-23794,H4NF,1.33293491589049,1.33293482586359,1.33422703840089,6.2043,12.9864123560205,14.1206493155527,13.6804331146097,0.643381882334821,1.62738395209872
mp-756570,Rb4SnO3,1.95593563288775,1.93981100368051,1.94266586936611,1.5466,10.3942539324307,7.38568701277376,6.73237171640341,21.333609668374,0.195410457399805
mp-23487,KIO3,1.87325732348762,1.81934490407949,1.89143362029969,2.8129,12.5866540329817,9.31810884571056,1.3823640591405,0.632363515915562,2.30476734103583
mp-697111,H2O,1.35178850786652,1.35012579784256,1.34877731668352,5.6717,13.172491729165,14.0555045840369,16.2385267518816,0.605661237543641,1.71266993895638
mp-9268,KSe,1.74988535053014,1.74988536195946,2.13378489543815,1.2368,7.62490887633316,5.59849678534048,2.43908408810488,1.87914926593765,0.94214566874988
mp-756117,Li2TiTeO6,2.24640286012995,2.01398757444032,2.18932233122489,2.3234,11.2203704349207,7.30613204608701,2.5900705220732,2.7313630599538,0.752207441107951
mp-23360,Zn(IO3)2,1.93610847320082,2.0809489614116,2.09352994724222,3.2303,12.7341670110434,8.68803943046695,7.54422879390532,1.67506501965324,0.729543404889906
mp-23195,Bi2O3,2.46831839315758,2.44707069370707,2.44707069370707,1.6582,11.9283216593558,6.96512230609934,3.55105095547381,0.438701452762379,2.56106127141246
mp-756044,Na3AsO4,1.56516720512538,1.56117010924499,1.57032541850408,3.2517,12.1495508418921,10.7318616896456,25.3701771037898,0.475887660221463,2.14075262683473
mp-7339,BaSiO3,1.7193645657626,1.71338059694862,1.7194803720892,4.6477,13.552086084755,10.8483994053949,9.5448826116203,0.43350160990027,2.41156469030502
mp-27931,Rb2SnO2,1.94800407853782,1.94942627200928,1.92804716747283,2.233,12.0070817791765,8.54886151834285,2.14264657820102,2.12342716671143,0.937649329866404
mp-626799,ReH3O5,1.62959232938794,1.62641598614869,1.70646105727614,3.939,11.0776772487033,9.2167821672103,16.1463343725871,7.24511235972882,0.199957646365867
mp-760762,NbOF3,1.87812856322457,1.68064550991576,1.76480679679108,3.6551,11.1722573278149,8.65763159306422,108.1561353351,6.37106584838204,0.166205500792716
mp-754712,NClO3,1.43479856425911,1.43438711302075,1.9107856028346,3.0085,9.40269119231984,8.14459224749058,20.3107310718992,7.69701944584226,0.1791554770099
mp-625830,Zn(HO)2,1.64805421330732,1.64899923286823,1.64540953260883,2.9721,14.4663647392858,12.0875309015586,5.10616597971444,0.431113706406245,2.5154153207486
mp-28261,Na4SnO3,1.93634804980923,1.95423779259332,1.9483213184688,2.0548,12.5406319306021,8.91012240637338,3.60068501419224,32.8649836741329,0.308152453380931
mp-556120,RbTl(SO4)2,1.76988633815847,1.77207001836835,1.73178409739783,2.0055,12.7198221365744,9.94827116264855,4.97660789630467,2.13320106623164,0.669719146645684
mp-566337,VAgO3,2.61221219467332,2.51518869669852,2.53822708203975,1.52,10.3326245364379,5.84331509484979,9.59220514546252,7.43494852889866,0.238751237358014
mp-606393,NbBr3O,2.10816228502457,2.11608283864314,2.11608283864314,1.9668,8.1485763358963,5.38408816967263,122.647077806356,9.53292133395066,0.113053114269503
mp-9870,K3Ta3(BO6)2,2.03374717209392,2.03374729501971,2.09767720109649,2.7449,14.1209691242169,9.55944580439861,8.8965720264991,0.685329887411901,1.57155414989014
mp-29526,BrNO3,1.47025959272504,1.45442350778582,2.3731738115865,2.164,9.81032379342495,7.63837900723715,10.5837102253404,8.35570134805465,0.21416358703815
mp-27277,PCl3O,1.50154061217138,1.4745022244812,1.52376665864561,4.4528,10.2370604371498,9.50372789842027,18.0473762198384,1.5001254642487,0.722020625947028
mp-558990,K2Sr(PO3)4,1.55254935187259,1.54832152022763,1.54518113177711,5.6677,14.298711691652,12.7864743817484,29.7151558897005,0.544871382969373,1.86894836569914
mp-30300,Cs3As5O9,1.77457799208713,1.77457801181013,1.63655275808634,3.2032,10.7989989254543,8.58845030503301,6.94350223258889,0.847868765720611,1.32344734856202
mp-553374,Cs4Sb2O5,1.80009611965584,1.79924839030079,1.82167767456265,2.5747,9.99743087272952,7.61227938850438,2.68636444375004,1.45523248917087,1.0594257332323
mp-541435,Sb2WO6,2.38865214503912,2.49518533379787,2.5978194433024,1.7295,13.5993414545815,7.83987609027919,4.51126740726854,14.5845124627874,0.290233081463975
mp-559377,IOF3,1.61971017160478,1.64860136782668,1.65388673130901,3.628,11.5363845076459,9.68135018382336,5.9491130309113,3.34584655244896,0.466970306626749
mp-23339,NaBrO3,1.65299908953393,1.65299908953393,1.65299908953393,4.4754,11.032886713436,9.18627128360523,13.9388236254314,5.42147101667938,0.256193849505611
mp-776344,V2O5,1.95765514838544,1.89899131646251,1.62918910811483,2.7565,9.24822184504311,6.96225734204967,28.7202925388387,4.66440535281072,0.249208187311668
mp-8537,S(OF)2,1.34912274089499,1.34912274089499,1.32627727116165,5.8897,11.8534691467463,12.7706646180578,455.11187893645,0.861578576534498,1.16285750491318
mp-17407,Au3F8,1.72215948738786,2.05623492821224,2.29770560777485,0.9603,10.5511555851589,5.57226173985609,34.2449602092945,22.6722933649805,0.07330807535015
mp-765070,Li5CoO4,1.93985943305179,1.9357972414486,1.92269660373133,1.6006,13.4532568570668,6.9195019318528,0.018424840180682,0.018423007207791,108.554509785266
mp-554702,NaZr2NiF11,1.55280421818077,1.55118861844716,1.54757937437793,5.6401,13.3175826292881,11.3924632212475,323.710668889415,1318.87746151166,0.00384739893526
mp-19299,CrBO3,2.19052881514944,2.20243829198459,2.11203627809751,2.3869,23.3160534642871,8.78465872216306,8.71249073536806,4.51035727395581,0.336489666824547
mp-762276,Li2NbCr3O8,2.26128527833177,2.26373307172025,2.30372358802006,2.0351,22.1119201224268,7.62965000214324,11.7059549263948,4.91030838501399,0.289079802879494
mp-643412,MnH2SeO5,1.81079587750801,1.72649091512235,1.67240997964016,2.0157,16.2508849950919,10.4913831235419,6.66081513984323,0.664773120106023,1.6544043903719
mp-761715,K2Li3CoO4,1.89670315020564,1.87494307113576,1.89125699205581,1.4725,14.3935211687394,7.19841419558744,0.017836654595349,0.017836442390578,112.12931699537
mp-554053,SrGaBO4,1.74165597349189,1.63367710395904,1.66161596044333,3.7453,14.8492955200959,12.1645550320543,5.60265529956186,0.496101509763527,2.19420329936486
mp-753690,Li4H3BrO3,1.53928533417297,1.53479888259016,1.54486533070038,4.4379,12.2228548547278,11.0038337493706,12.608980418563,0.571212892931703,1.82996931844419
mp-541656,AuCl2,2.59921802663801,1.75272365192006,2.46555803622628,1.0976,8.62759601080706,5.36262383215156,28.9246887623655,4.2309393188972,0.270926675711185
mp-560176,K2NaAl3F12,1.3760589958283,1.38235543909662,1.38203284693237,6.8682,13.9816791793639,14.4557276914901,37.4522551211272,0.563290278225602,1.80198427433741
mp-19262,Cr2CdO4,2.29608058220961,2.29608083481397,2.29608085876783,2.5745,14.4053642685873,8.87798231768386,0.001243363912791,0.001243423933761,1608.50070418175
mp-541668,SbP2O7,1.78621443841438,1.77729947954755,1.77493360439201,2.255,13.6694169144305,10.563955182257,43.2772684806822,5.3819484801899,0.208913131061012
mp-542043,K4H6C2O9,1.53472087690238,1.52995279012132,1.52115207983949,4.2112,13.8269946782141,12.5522772489614,28.0539874927245,0.647151765228075,1.58087814925159
mp-561490,PdSeO4,2.20771812738855,2.1163759094263,2.42640729268604,1.2832,8.42322240001847,5.27861937572561,7.06152046345053,4.35436349886092,0.37126725149041
mp-11711,Gd(BO2)3,1.81710365967382,1.87461510982922,1.84674776837553,2.8111,19.160708303658,8.25452724379362,2.80653205552531,660.314512313355,0.357826055793472
mp-3744,NaNbO2,3.25074725409405,3.25074791240416,1.8775949217017,1.5679,13.1561516821879,6.94391278131297,0.892978602005286,1.43722416010308,1.81563334963884
mp-763960,VOF2,1.91402130604651,2.04105751266347,1.9296848576905,1.7569,22.6617063239819,7.17726890311276,0.02925695616414,0.029256011146466,68.3609152790016
mp-9146,CdHgO2,2.29531847027814,2.27069922050456,2.65457152663099,0.4009,1.23355703890362,0.731628137208323,1.42251590483376,0.352209295420897,3.5422007583981
mp-772290,LiAgO,2.38504961373972,2.38678596024026,2.1783422343608,1.6102,12.8491557343739,7.86091198813069,2.68780124940903,0.880614106232202,1.50762249927715
mp-30890,Hg3SO6,2.23039642888882,2.23039623161446,1.9344066041037,0.8592,13.1997994493257,8.65747171616852,9.43546429918299,0.417174192199307,2.50306333523686
mp-754358,ZnSeO4,1.97261093224183,1.91957580991218,1.87145122298178,2.1496,14.1957928457616,10.2059153907983,2.42650262946756,0.389747207526604,2.97788142722799
mp-555251,SiO2,1.42772732690805,1.41103513776235,1.41637255692138,5.9069,13.2062764489672,13.1547491741034,8.66770684260135,0.600473185703618,1.78072406626376
mp-14935,P3RhO9,1.96683426602243,1.88757883014194,1.91411336393642,1.808,11.6450621244113,8.36560872091761,27.1750335626086,18.8473283921978,0.089856400379818
mp-9812,ZnCO3,1.88857558493167,1.91007972346706,1.731686510313,4.5089,16.6778058642914,12.4596126674415,2.34953921231902,0.854874346550599,1.59537792470222
mp-744764,Mn7P6(HO6)4,1.72602629180439,1.73627885145215,1.70734452879318,3.3192,18.679413110679,12.3810397717772,16.4613083108258,40.3427168203946,0.085536134511793
mp-755950,Ba2Sc2O5,2.08484689845562,2.11399204350442,2.1113931609248,2.7857,12.1183174507262,8.03989129474898,12.4295457998743,1.14700953408707,0.952285797426304
mp-672212,NaNb13O33,2.41910730642524,2.25471388872291,2.3702194835078,2.07,11.6945247611139,7.07655828633995,69405.9212088172,13.7930377880276,0.072514753120935
mp-10326,Zn(ReO4)2,1.71858819965692,1.71858836840007,1.66870856353049,4.0195,10.3691966054177,8.37685319304935,22.0127998670443,7.34411047025705,0.181591643962618
mp-7596,NbNO,3.12276505840577,3.49868406404465,3.26652587162569,1.6954,13.1541224120176,6.13362612485218,2.89235130092602,1.29092456082112,1.12037807224272
mp-561224,TeO2,2.28003539226916,2.34527439759189,2.46419066023715,2.8853,13.8820861144954,8.3564585339313,3.79960827085601,0.975704928529686,1.28808504480753
mp-9200,K3AuO,2.20242058880678,2.20242058880678,2.20242058880678,0.6138,4.04780509398282,2.58250597421208,2.63097999432528,0.393911256456606,2.91872937186709
mp-3614,KTaO3,2.3360439272411,2.3360439272411,2.3360439272411,2.7296,15.6689419012416,9.52113751122393,2.118502683669,0.444410788598415,2.72220189584744
mp-541368,Tl4V2O7,2.28914200739054,2.28914192220579,2.13030760689624,2.6392,13.6214149333215,8.5805405526198,0.897335673139598,3.75994993104767,1.38037115834473
mp-7288,Sc2SO2,2.52781595849065,2.52781600991844,2.51738749897587,2.7454,12.081151075294,6.8979777794736,3.04740195699956,0.891070713884611,1.45039376402572
mp-745106,MnP2(H4O5)2,1.55655187835163,1.57363385194905,1.57856160792032,3.9748,16.1850530387096,12.9452372395943,305.832424335283,367.737054044202,0.005989098829092
mp-772107,Ca2WO5,2.0775840464347,2.08069835872478,2.04472963493954,3.2213,13.4510945190139,9.05751246632373,10.1127239202969,4.64998606658241,0.313939733678311
mp-32434,Ca2V2O7,2.08823316466337,1.99350470027036,1.904939550222,3.0873,10.9992429227622,7.64154438577548,10.0086477529477,99.5731138352211,0.109956468819072
mp-22909,ZnCl2,1.68551999988134,1.68845453299756,1.70522361583459,4.0499,13.5810562873232,11.0304442974339,2.45741598424762,0.507189603514966,2.37858075843533
mp-14437,RbYO2,1.95653827971752,1.96105843360161,1.86041668988429,3.7524,13.9136059295814,9.98030184904393,2.32026371885443,0.611764529304855,2.06560134823512
mp-2739,TeO2,2.31997525417837,2.31997525417837,2.47206046649349,2.8711,13.9340909059946,8.36621222105341,3.90414051775465,0.969972976040184,1.28709487897191
mp-554573,SiO2,1.47804317595935,1.47758852188287,1.48018069505044,5.6155,14.0871475698885,13.3074607349248,5.11222334561839,0.560173942712163,1.98076940077685
mp-759342,Nb9AsO25,2.39363128112916,2.39363128112916,2.40520412647243,2.1953,11.8292898725007,7.03811788612524,12.4983048027091,1.31405425839122,0.84101443457729
mp-698567,Cr(Bi7O12)2,2.43457399558937,2.43428889411261,2.44378715317026,2.0685,11.4470807172658,6.7205386366811,9.1254410724146,53.8508238956317,0.128153562199574
mp-556335,YP5O14,1.63164816979642,1.6316335372871,1.64099841255255,5.3064,14.5424698613161,12.2514631136032,14.2742776996678,0.640010506470808,1.63253043402801
mp-560995,Y(IO3)3,1.97822452719604,2.09495845066197,2.04178581638721,3.4552,12.233528648966,8.341220803274,7.97340500341032,2.75595994008555,0.488266909545967
mp-505679,HfV2O7,2.01410522316983,2.01410522316983,2.01410522316983,2.6777,10.3678366532632,7.14399271745708,6.26144705150042,1.0675451914178,1.09643598575012
mp-768342,SrNb2O4,3.20488726478795,2.10050990952197,3.19851894945145,1.4435,13.230004774553,6.90454396863349,0.737690831508602,1.12554254382977,2.24404185938987
mp-27934,CdBr2,1.97549861807089,1.9754985067066,1.67394410599637,2.9421,12.6857022222924,9.32760413403583,16.8032522775423,0.37994381399902,2.69148039330009