MP_id,Formula,Ref_index (1),Ref_index (2),Ref_index (3),GGA direct band gap (eV),Effective_frequency (eV),Average_optical_gap (eV),effective_mass_valence,effective_mass_conduction,effective_mass_transition
mp-557685,NbIO2,2.75183470433818,2.46928538447868,2.39087111112247,1.2198,9.67996273342022,5.50460387399445,2.49228183142878,3.09159018236145,0.724696868022157
mp-504554,Ba5Ta4O15,2.21299469271844,2.21299488702527,2.08629876336061,3.1216,13.9248586081662,8.9931790679734,5.69419862281224,4.38649271001738,0.403589903529421
mp-5966,Cd2SnO4,2.3418397062993,2.32457464066009,2.30569008108202,0.4119,1.53493033704923,0.936627736369587,7.85716221860532,0.130165919714988,7.80977488579922
mp-29710,Hg4P2O7,2.01755301045598,2.04852503035721,2.31788582764553,1.9699,15.211400450964,9.99185266074459,1.03299341599498,0.398105209804722,3.47995918419581
mp-15438,ZnP4O11,1.57225554856709,1.61195980098761,1.60558052429643,4.7901,14.2733325243089,12.3356780674553,27.1078415135322,0.51182416283985,1.99068569077101
mp-558159,BaTi2O5,2.19638124422879,2.11818461423928,2.17546628335169,2.9524,11.2679775983036,7.29840189658495,8.11966006695556,3.52862861583811,0.406554081937943
mp-5560,Cd3(BO3)2,1.96808988869919,1.9143026693812,1.94045877565075,1.4544,15.7147052275384,11.1932126057193,2.48824579377225,0.365754715362774,3.13596230584347
mp-3748,AlCuO2,2.46466127287301,2.47639649087136,2.1710839205337,2.59,16.8098839117907,10.0927258993494,3.02162351698506,0.8915223078077,1.45262483816625
mp-27437,Zr(IO3)4,2.22805158827169,2.0412195619286,2.0412195619286,3.1885,11.9402887414933,7.92149861426172,8.97362245372498,1.19629638819876,0.947350965536395
mp-17789,K2RuO4,1.68335779916214,1.69123219872376,1.68908792547931,1.4195,8.77809235061083,5.83511514453457,14.5278989777138,9.85470137107662,0.170307487011993
mp-33940,Mg2PtO4,2.14773612438772,2.30227954644956,2.00255526765181,1.2021,11.4406689897397,7.446772248602,2.04202983166979,1.04405615984207,1.44751169364801
mp-769404,YSeO3,2.07333933546827,2.01538124681163,2.07417061255819,1.9364,11.795497366332,7.98775680470903,16.5181469650602,57.0598466940597,0.078064937248988
mp-29775,Sr4PdO6,2.24554015773488,2.24588816729596,2.24520351193383,1.5822,10.7203246463048,6.72964912166942,2.2199407954638,3.39873279562632,0.744689771388895
mp-771127,Rb4TiO4,1.70787807234592,1.70839209199762,1.71807244026554,2.973,10.659066911945,8.56257707356994,71.0549140784423,0.545650013605091,1.84675020048629
mp-8253,Na5ReO6,1.91884530903353,1.9203470077046,1.89943852493309,2.2613,9.55914762231094,6.89987212908964,19.9446437626302,2.22428708108094,0.499721028940494
mp-4598,Sr4PtO6,2.15046682373851,2.15060027666696,2.15033507621487,2.2143,12.7509612256342,8.30092501598484,3.35204888690878,3.555723203858,0.579561744099973
mp-769147,Y2(SeO4)3,1.64119035154366,1.65592543612326,1.650306901761,3.8169,11.4758493411748,9.57863215113462,10.6917952825563,0.802927832267575,1.33897160571077
mp-14726,Na4TiO4,1.6742268962121,1.68273855663915,1.693466279558,3.374,11.4616104162833,9.36350220468654,22.7912987991218,0.622771977100482,1.64960053800388
mp-17841,Mg4Nb2O9,2.03879620364567,2.03879648567482,2.01530567904723,3.4252,12.4892002731126,8.54265375531314,4.87344639193448,1.7295199917954,0.783388706936195
mp-28556,Na3CuO3,1.87326767174368,1.90396988946779,2.32948342556885,0.8442,8.02562046061411,5.47862229050564,8.32514091389873,2.32026768664501,0.551102841730381
mp-542076,Ca3V2O8,1.99480640915353,1.98943946879517,1.99611745896879,3.6492,11.8309361574333,8.22707722313413,7.50184713939296,2.73531196281576,0.49888951611727
mp-3283,RbNbO3,1.98824103921029,1.78262736711855,1.77722028741515,3.311,11.2102305324132,8.3496356874319,33.4315859702161,21.1801489256375,0.077125853688852
mp-30003,AuSO4,2.07801674199223,2.19983065257306,1.73231773067183,1.6836,11.0061006254581,7.61973660121137,37.7812636768563,30.9882691703834,0.058738421954716
mp-769810,Sr3WO6,1.9414275366338,1.94142749027616,1.90355273370611,3.5967,12.9375837602435,9.26791415807362,5.75939325735441,1.79028791811386,0.732198773807371
mp-546279,ScBrO,2.1413360712415,1.89904390154625,1.88773595346383,3.324,9.50910921550342,6.66455734904154,37.0541839257277,2151.4544306211,0.027452307552792
mp-558966,Ca5(ReO6)2,2.190542494452,2.19101267910526,2.18028357559286,2.1699,10.4109488253162,6.68086339315952,27.4638111541059,7.90306423570469,0.162944751483311
mp-18996,TlV3O8,2.33333815809025,2.01430296132434,2.32687262221205,2.0141,11.122430273259,7.0361893969085,2.49801320706119,11.4434188250018,0.487704611811813
mp-607436,ReCl3O2,1.6192442033245,1.81627391381366,1.77890727976474,1.8707,7.0123983243109,5.54627414845659,46.7103235387751,72.0847207167592,0.035281109007288
mp-510456,Zr(MoO4)2,1.98614778151073,1.986147632982,1.81959232522013,3.1931,11.230842632162,8.03834206259721,5.74566049677206,1.78074956014212,0.735605672802229
mp-546125,ScAsO4,2.01953427056834,2.09131673115289,2.04456611778636,3.5272,12.8297181044921,8.69733729529662,3.49193909248589,0.545031029179101,2.12113176271793
mp-19970,Li3CuO3,1.82414362099041,2.5025046793163,2.5025046793163,1.2946,8.45382725560333,5.24720383332061,10.284486835485,2.56662086163469,0.486851168430312
mp-5377,YTaO4,2.18632817070082,2.14462978856492,2.12081357738015,4.3643,14.5230245169312,9.45408466808214,3.43535131121323,2.12459841214593,0.761768229145321
mp-29282,P2PtO7,2.05388028132119,2.15959176234769,2.14994215736145,1.5013,12.1132033931306,7.97875230802023,2.79521515184025,18.872613557021,0.410741045931291
mp-752849,Y2Pb2O7,2.40152643125159,2.40132439915976,2.40148029140362,0.9987,14.9760802177425,8.89853492002621,2.16554782280989,0.308462892239318,3.70365795213684
mp-552120,YClO,1.90491096642337,1.90836758775661,1.77404601969622,4.7039,12.3607863330485,9.14584854704192,3.42404490295596,216.52296845852,0.296670692414131
mp-557637,Hg2SeO3,2.02913979804251,2.0771171825393,2.09895066640453,2.3228,13.1608268752467,8.85932756165234,0.748205942876333,2.5984596847422,1.72137379285613
mp-761010,TiP2O7,1.96346589224259,1.98048998482699,1.77320329629741,2.5895,10.7764216466698,7.80534420927958,5.63334764188199,4.49841037715485,0.399815091872357
mp-12199,Hg3(PO4)2,2.05420071317289,1.92712414493722,2.02215977855361,1.4792,13.8849171023266,9.6222974989164,10.107772631327,0.445483566830391,2.34368547833222
mp-4609,HfSiO4,1.97042588797448,1.99435128550614,1.97861894006906,5.6474,15.7720078788377,11.0285249219863,3.22848379694066,6.0353349407076,0.475433807539121
mp-558608,Nb2PbO6,2.4648083941759,2.46238464907496,2.46676334089835,2.5575,14.9858397313106,8.72066712742553,8.75551397191263,32.6576311481507,0.14483445492759
mp-755895,Ba3Zr2O7,2.17331244877491,2.17331244877491,2.17028647878569,3.1319,13.5542577344957,8.74857715146929,3.34963335284589,25.1794350332738,0.338255086848544
mp-30123,Hg2SeO5,2.20647847485535,2.20746552860968,1.96910787413996,0.7635,12.8417135435001,8.43631698452341,6.83777059110447,0.355615194581472,2.95827482265276
mp-27377,K4Zr5O12,2.05913978155928,2.05913984712064,2.01594927019506,3.1866,13.0845625121106,8.89690955889987,22.5904070892179,1.68182845467514,0.638857539949677
mp-5403,Rb2TiO3,1.72953035821867,1.69507983882766,1.72653245263447,3.8794,10.6789476559389,8.55027453489699,53.3082983487565,18.5543425970468,0.072654544175676
mp-10299,Ca4PdO6,2.28092262034467,2.28134965097418,2.28050780967749,1.7922,11.5169328792542,7.13668565459061,3.91350906126519,2.60971528264744,0.638708715418144
mp-11673,Sc2(SeO4)3,1.79388882598672,1.79380730013009,1.77606097586766,3.5636,10.9572568698898,8.4291010427014,20.8381326174906,1.80938837926922,0.600661887663993
mp-510076,Rb7Au5O2,2.09714326167766,2.05999866990248,2.11022739769912,0.6839,8.31351199333145,5.54813641893078,1554.76456732581,0.492345250840877,2.03173823039106
mp-29297,Cd3(ClO)2,2.10972487068812,2.15613517201496,2.14481303614091,1.2841,15.2276711667865,9.96691450863551,2.7586199040369,0.218221189387902,4.94500651704835
mp-542201,Ba3Nb2O8,1.92573759635107,1.92285474490405,1.94939164356473,4.5713,12.4684694035795,8.91561247543229,4.90913116931041,0.499269210132781,2.20662947126474
mp-9986,CsAuO,1.82960031700915,2.02325207030661,1.98886661945943,1.3914,10.2452332195766,7.27606782161516,543.924325811207,0.925656016245497,1.08215340549061
mp-27927,NbAlO4,2.12921323497671,2.04245287583337,2.01349145515942,3.5487,12.7876334656881,8.63240561699247,4.29307095016463,29.4467195686705,0.26689313032206
mp-754246,TiSnO3,2.42450899152798,2.55628638458213,2.58098233624331,1.4329,12.0692401723238,6.89927917581468,0.513861226833584,1.54574967226922,2.59298598156045
mp-16834,Zn3(AsO4)2,1.89470546787621,1.83095416654814,1.84108316487876,2.238,14.349342397171,10.6540191959886,6.08511679663124,0.352440988568854,3.00168981245191
mp-19453,Te2MoO7,2.14004539671475,2.11772954599968,2.17021047827164,2.8869,12.0688578347843,7.88123695708613,6.22753372539079,11.7023439779147,0.246030177300178
mp-27580,Zn3(AsO3)2,1.80177212765655,1.88389415042353,1.84013256044232,3.5506,13.6411270193328,10.1988955122118,2.43701456713016,3.04479178803596,0.738767812320418
mp-770408,Rb6Ti2O7,1.69892355036947,1.69051729065396,1.7030979419869,3.2141,10.6170450138607,8.59999885397572,14.8759838435874,0.508865388298178,2.03237869810611
mp-16543,Cs3Cu5O4,2.02453637161697,2.01985266541894,1.96323971282164,1.6428,9.83712817339776,6.81298759072171,47.2161966867197,1.26776633180006,0.809968064903311
mp-562434,Cs3Ta5O14,2.09293905071314,2.5930312011235,2.08375834971332,3.7955,13.8617284051989,8.66630615271567,14.645763703161,15.4437303829451,0.133030324896398
mp-540946,LiReO4,1.66206966460495,1.66249606315323,1.64101192865866,4.0239,10.1554278842964,8.44390299554389,33.8786465855943,20.262697124862,0.078868889310922
mp-9172,Li4TiO4,1.79563283273614,1.79185768687137,1.81419316777459,4.5644,11.5166745950271,8.79928168606614,7.60093138239049,17.1988971311371,0.189706087349107
mp-29276,Cd2P6O17,1.56776037390923,1.60359061795709,1.60434048755244,4.4113,14.1763127028401,12.2916054245705,73.5043244967988,0.532716326954636,1.89077631715787
mp-565725,ZrV2O7,2.05457291182377,2.05457291182377,2.05457291182377,2.6231,10.3797127278316,7.02818144019318,6.73715646002515,0.958812557566559,1.19138729378716
mp-8459,CdSO4,1.70911142410318,1.71278923104975,1.69929154061332,3.1059,15.1134758331012,12.1724665370265,2.11115229057916,0.442196484900662,2.73511311929545
mp-4591,SrNb2O6,2.15249521253823,2.3380742888112,2.33099448948298,2.9952,12.6623002287061,7.86658393522519,12.565166668022,3.66064972704164,0.352760645661305
mp-555428,Sr5(ReO6)2,2.10642638133878,2.10738191128234,2.08564215530853,2.1949,10.5043193340941,6.9793630103724,11.6837911521485,6.15248700813993,0.248124555436273
mp-505733,Na4MoO5,1.83156527593204,1.80692551312997,1.79871529987377,2.9446,11.3867786558822,8.6453930869661,144.283103877782,28.8402987824033,0.041604523041926
mp-5449,Na2Ti6O13,2.33573297489246,2.15124511620596,2.41374235576211,2.9372,10.7179735430181,6.59563036639045,11.3012884498468,24.5002014560054,0.129301476832605
mp-553907,Rb3AgO2,1.87719090398393,1.87715475920341,1.82482585744503,1.5831,10.2168108797266,7.56985683106012,48.3022707471192,0.562843458221658,1.79739590301136
mp-28030,Li8Nb2O9,1.96436999060768,2.03139232547531,1.99232557078405,3.2228,12.0020070972008,8.33645013218771,18.0049560155516,13.1502206541278,0.131584614790527
mp-554435,TcBi3O8,2.23605864860473,2.23605864860473,2.23605864860473,2.0173,10.2853931708659,6.4794142080512,5.16624444245715,31.3150026687218,0.225497780757333
mp-4387,SrZrO3,2.17078114742136,2.16659459751934,2.16179195576263,3.6377,14.2334597600515,9.20819576490539,4.59812678911751,0.872036362042235,1.3642210386355
mp-3033,RbTaO3,1.97837902081477,1.97997632056548,1.80052558715504,3.6261,12.7026700750163,9.13935039967043,19.6704933354705,11.3648962874892,0.138827810068935
mp-29792,CaNb2O4,3.22963063058301,3.22337320519979,2.05847071876187,1.5086,13.2084424217814,6.88862995190999,0.743533983018684,1.37694935245674,2.07117156467245
mp-27297,ReCl4O,1.65839460925318,1.62327134823479,1.74088180529294,1.4565,8.02584822536611,5.1843940413433,86.7138685978091,82.4584749765702,0.023659496885628
mp-558930,Zn(PO3)2,1.59940605538431,1.59940110979079,1.5926885320112,4.7071,14.4244385400466,12.4614205394198,13.389391083974,0.510381533033607,2.03400453504552
mp-559530,Ti5(PO5)4,1.99663618869337,2.22962611215423,2.04529033635814,2.9002,11.0186461286199,7.3492035916705,12.5923397698582,43.1160758460482,0.102606564422982
mp-8727,Ba4PtO6,2.22860304675373,2.22836567241555,2.22884448537802,1.8491,11.2698381317288,7.11937787442889,1.66849886027741,3.28386271410709,0.903860564023496
mp-5418,Li6Zr2O7,1.9420511141574,1.92325903611552,1.97404172448305,3.9985,12.6439383733952,8.98290197216474,3.83229504479808,1.20104389905315,1.0935492764533
mp-7374,Ba(CuO)2,2.44273697110434,2.43835417648872,2.42169392574702,1.3793,11.7851025516662,6.92648297933524,2.86319520904032,0.472360131428907,2.46628894945339
mp-4571,CaZrO3,2.1710696326926,2.18070653229636,2.15819486376926,3.8264,14.0575055120096,9.08158231477578,3.24709522484673,1.03889575041765,1.27052804952251
mp-560261,TaBiO4,2.53578866627328,2.42683677860708,2.48689966625113,2.9009,14.2179354226234,8.22458452924142,3.79021934236662,2.70478692217004,0.633551863670084
mp-28205,Na3ReO5,1.79008503987939,1.79008508736317,1.78666136690756,2.4466,9.89324196098981,7.60635656291999,134.627349626001,23.1845051924486,0.050560166644926
mp-4661,ScOF,2.00930923951491,1.81001119886038,1.98693635278033,4.6051,12.543005985157,8.95728132331247,81.5301871450648,4.05905145811979,0.258628372365295
mp-25113,VInO4,2.02895839287059,2.05581490898378,1.98952159324798,3.0353,12.3863180302247,8.49513449420695,2.88597221915433,4.73947545024571,0.557497495630957
mp-4649,PdSe2O5,2.01004307416533,1.93410813813499,2.16922103069282,0.9992,8.80145691679736,6.00249791138289,79.4804192028078,12.6707894506336,0.091503395980297
mp-3368,LiNb3O8,2.4465764713166,2.38085197985931,2.33793313847937,3.0017,12.1455174803271,7.24833649550491,6.72919301583605,7.87397641522271,0.275606863655188
mp-8187,K2ZnO2,1.87679861732686,1.79029394793146,1.79365204819664,1.9786,13.4592156188973,10.1767446463008,6.88929792281877,0.385211579987488,2.74112862873878
mp-769582,Sr5Ta4O15,2.1751988966529,2.17520157686592,2.05140303207342,3.3709,14.2706779529009,9.35158682473159,9.32434050168746,4.93983821270933,0.309681970406583
mp-29606,Rb2Zn3O4,1.99838954911198,1.97422701582164,1.99684727758534,1.4095,14.511676401628,10.1076512059002,2.5371703353309,0.281468353374908,3.9469371544825
mp-759172,TaSb3O8,2.41774783838183,2.28504771284978,2.40297414676063,1.9503,13.8590816764896,8.32710351385721,28.935749494186,2204.64161974197,0.035012914467378
mp-505212,Cs3AuO,2.05681380294863,2.05681379808674,2.18688979603454,1.3317,7.87307262409327,5.23032547835447,25.1139979947379,1.04253451283966,0.999019289905193
mp-27576,Sc2GeO5,1.99348678952232,1.99375163698992,1.97673837419118,4.1675,15.2099103441818,10.602679880505,8.93782617787931,1.21538945603107,0.934665561776462
mp-27686,Cd2P2O7,1.79593872389901,1.79421532152638,1.77692982416301,3.0504,15.6157430916091,12.0055179796969,5.46822957375425,0.438570065019144,2.46301192814959
mp-7094,ReAgO4,2.05918626889361,2.0602843614414,2.07667472898381,2.3518,10.4437006044495,7.0392188280766,9.54724726488806,1.1873719052538,0.946938343488019
mp-754853,CaHfO3,2.08898607941748,2.09452260909258,2.07714741171637,4.4855,14.5858784728324,9.74311531919812,3.61661492762028,1.02533561402043,1.25179206981126
mp-753747,Ta3O7F,2.20706988108669,2.20783176668876,2.72502691546341,2.8542,13.6747501296866,8.18447805266917,3.15845253301279,0.731002993979663,1.68459419517925
mp-30284,HgAsO3,2.04063961296452,2.04063979183,2.54551151637544,1.2351,15.1080503256945,9.61511698902614,1.52842485345808,0.199165943395704,5.67520708099989
mp-753802,Sc2Ti2O7,2.2300246926884,2.12383214967662,2.12989732381634,3.706,11.1394782204533,7.22109550395845,3.07544578124237,6.68070107642553,0.474841003449714
mp-27742,K2CdO2,2.03251893718115,1.86078897513931,1.8254529492704,1.3833,12.2078600831047,8.83985458867613,8.7182969152334,0.400423972906683,2.61205427615167
mp-5214,TiTe3O8,2.36781502022434,2.36781501600104,2.36781498643792,2.7512,11.6799915278993,7.01968025096053,8.9712437431573,2.18867859638268,0.5683639517728
mp-27250,CsTcO4,1.62056835708957,1.62541155403793,1.61414657017261,3.4342,8.9447187667268,7.60892885651387,19.5225650838608,6.30526089247822,0.209820496868634
mp-19594,Sc2(MoO4)3,1.84862756930648,1.8369604758949,1.8165224248547,3.6176,10.9223456880608,8.1994680805949,8.24145630739765,7.19113338355176,0.260397916410356
mp-752658,Y2SeO2,2.36320312076639,2.36312920721657,2.35562395131311,2.5002,13.8887694062533,8.36771508573237,2.03297449858667,0.679512135210037,1.96353414924375
mp-542289,HgNO3,2.04044786505316,1.69160205131112,1.71932279110119,2.5875,12.1236723484692,9.18197614538378,49.8394460549676,852.34215468613,0.021237666222518
mp-761775,K2W4O13,2.17698475189883,2.14402874281107,2.31368419625497,2.228,13.7269575460671,8.72742913690449,4420.15089927826,173.740329687375,0.00598195264647
mp-29205,YBO3,1.87811625838232,1.87882791388674,1.89902489715117,5.2105,15.411652939767,11.2741503082651,7.51889247909462,4.33192777443229,0.363842418264079
mp-572510,K3AgO2,1.85317485953161,1.8540632162901,1.79897079464898,1.8096,10.7999171451794,8.10183681851213,121.517823387863,0.702470336131123,1.43177690090721
mp-3050,Y3Al5O12,1.90776216547032,1.90776214450334,1.90776218381642,4.4951,15.3454336151408,11.1037287813973,3.93406238739768,1.147525195003,1.12563073455923
mp-29958,Hg7(PO5)2,2.4559744094758,2.16467698283139,2.46944052975568,1.6533,14.982327407862,9.018148645738,1.90622115987404,1.18843885853627,1.36603810649177
mp-5207,Sc(PO3)3,1.61585183417292,1.61585179085212,1.61585176919172,5.1644,12.6772351734174,10.8142091307318,32.4203049839685,13.0414639718922,0.107523375182352
mp-7467,RbCuO2,1.55760692730868,2.48892438816449,1.71372794515349,1.2966,7.68603616317201,5.52875885990624,13.4915713102755,5.28180983674512,0.263449393599837
mp-3188,Zn(SbO3)2,2.18618639415764,2.18618639415764,2.23345928326442,0.542199999999999,5.34648647738623,3.41168673403101,1.87908457921481,0.205737834160981,5.39272873851724
mp-28940,Sr4Nb2O9,1.99324116202732,1.99287127030323,1.86454678407381,3.7258,12.5595060269853,8.90730700610018,9.19226778438629,3.25575199720522,0.415935785179602
mp-3952,BaY2O4,2.10240371242062,2.06771108233235,2.07529867729925,3.2492,13.7718972619354,9.21883028140025,3.17917363814681,0.852962333397788,1.48693186020821
mp-29920,Rb5Au3O2,1.94696725190744,1.99592998875211,2.01025643637821,0.9303,8.19178597314361,5.71968446926422,9.43251928056508,0.895740221064322,1.22241132291164
mp-18921,NaCoO2,2.55482651270101,2.58241810325129,1.96553532402753,1.1247,6.93428100042178,4.16782268689772,5.54998236664772,1.33848696695468,0.927292995566448
mp-560792,K2Mo3O10,1.75934099878335,1.74476274318315,1.84652821803513,3.3392,11.1148768690269,8.57072378664699,151.429136808373,29.7639014401194,0.040201494910265
mp-7534,K2Cd2O3,2.23337457001731,2.14289685472726,2.22942091135792,0.6527,9.95440145563688,6.3521909060014,3.21172375441413,0.225631412126894,4.74336629034195
mp-8058,YAsO4,1.87125395657564,1.92715493149876,1.89059947106731,3.6644,14.1403929317626,10.2885662509223,3.98924173253035,0.489729082398171,2.29261950896456
mp-9178,CdSe2O5,1.80017039471268,1.98089605229553,1.97442131522125,3.1531,12.7559195768372,9.18261406164713,3.90429422172342,1.14642478067394,1.12840526564484
mp-27322,Nb2Te3O11,2.10666955643262,2.22256533312297,2.33370975059025,2.5801,11.9686499579292,7.58250525325815,104.819652057219,32.7628086871162,0.040062609436805
mp-35647,Zn2PtO4,2.42316442900601,2.547683057211,2.31456947616614,1.0525,13.365652927231,7.87044618373073,2.51445310171532,0.489521542658834,2.44051181215556
mp-17953,MgNb2O6,2.37030583680672,2.20365889601817,2.13206237244598,3.4118,12.4024590618626,7.81517321762424,4.85330505832318,10.2101286944205,0.30398711485632