MP_id,Formula,Ref_index (1),Ref_index (2),Ref_index (3),GGA direct band gap (eV),Effective_frequency (eV),Average_optical_gap (eV),effective_mass_valence,effective_mass_conduction,effective_mass_transition
mp-4618,Rb2SeO4,1.57034076238248,1.574486776699,1.56460446119778,3.6361,12.2127723730333,10.7548335958507,13.7243194282847,0.598446793559365,1.74385568475413
mp-6037,Ba2SmSbO6,2.07603807286861,2.07603825590956,2.07603813789632,3.6054,14.2657776827976,9.57243270382356,2.37644787967534,0.400441655687094,2.91803879656233
mp-552547,SrBiIO2,2.27293813158212,2.16225395363264,2.11902527592287,3.2099,12.5287245843063,8.04775348981062,4.33761807869429,1.16497162260045,1.088931282083
mp-28537,As2PbO4,1.99516724111038,2.02942597795534,2.05871357162671,2.8575,13.4751988297203,9.22987411443045,3.9158578876608,1.1260108051581,1.14346282737502
mp-11737,Li4SiO4,1.64251489186552,1.64792710700443,1.65732627143843,5.0233,15.0359680348739,12.5492586141052,6.0949763876126,0.676354478324307,1.64258418746643
mp-706986,PH4NO3,1.51822656082681,1.49790436944419,1.51947111193336,5.2235,14.46367848749,13.3012988265976,42.2543588071359,0.561706125986192,1.80395655526335
mp-6134,LiCaAlF6,1.42524274072875,1.42524269161431,1.42629682394654,7.6738,13.4875978232675,13.3453521425172,31.7747867598085,0.597928103849675,1.70391337013399
mp-542831,Gd2SiO5,2.02948192650243,1.99344262771719,1.98495816832497,3.2553,15.4418124872028,6.85927612596986,11.2255502790929,4336.78058315724,0.0893130784249
mp-14396,Mg3(PO4)2,1.57780228799428,1.56407160641705,1.56305999245071,5.1348,14.9006425513639,13.1359155178115,27.6853531237734,0.496227320035796,2.0513256326858
mp-19921,PbO,2.49130785532419,2.49130785532419,2.38080056283595,2.122,16.4037363234749,9.57738809362637,2.72784570155149,0.393110295873026,2.91040498721249
mp-554669,Ba3Ta2CdO9,2.19051235102658,2.1905122232026,2.15152109448176,3.6137,14.1720146058771,9.12879668181728,2.48694837274142,1.51989860906212,1.0600378440058
mp-13926,Rb2NaYF6,1.44089150181407,1.44089164408709,1.44089150528414,6.4704,12.4834367859966,12.1816863480103,6.39923416213352,0.514820913031027,2.09869173373013
mp-30273,AcClO,2.0101789671569,2.0101789671569,1.97190863885729,4.4879,13.7213345112696,9.52475990951602,5.87433381703346,0.585647230124476,1.87774462706388
mp-554012,SClO2F,1.39725033548037,1.47027452538633,1.43926969328198,4.6515,10.9893091147738,10.7747322965348,72.9651641168693,1.77157476393376,0.57817471477179
mp-9498,Nd2C(NO)2,1.93191959718825,1.93191939272838,2.23858193506514,3.8367,13.4316825208899,9.17470359666383,3.23287485123842,2.77716256117769,0.669401961701937
mp-19601,Ni2Te3O8,2.02811933080872,2.11163423679386,2.25451619643772,3.1656,15.5593281273973,9.28072523371182,4.77547235419191,5.72686720144283,0.384018907545528
mp-15600,K2Ca2(SO4)3,1.55131196411296,1.54987787260803,1.5494039595922,5.517,13.5410161814931,12.0954020653046,50.5001828362915,0.552471268917489,1.82985078572406
mp-542222,Tb2H16S3O20,1.59834138406036,1.58251241385336,1.58057843842057,5.3905,14.5214544398834,12.6324721561799,39.2644818942196,0.536091438711907,1.8908217326278
mp-12668,Tb2SO2,2.27571947084872,2.2757189171776,2.26555433613939,3.3346,14.4411067244155,8.97665870792507,2.18819155935765,0.690129302384158,1.90600220762047
mp-555576,KNaS2O7,1.48535634781691,1.48491696737562,1.53299379320335,5.2547,13.6627156371363,12.6723067916396,39.4564589438679,0.647170875983763,1.57053135532948
mp-505368,As2Pb3O8,2.11214972717371,2.1624832022469,2.19881740715322,3.3315,15.5873487497846,10.1180463227775,28.405906833167,1.98911012604544,0.537941318953475
mp-30058,TlSbO3,2.01808037005467,2.02153548818714,1.97977845730274,2.4341,14.01271386448,9.68807193165768,1.73623137140483,0.864332394719596,1.73292240865356
mp-23185,XeF4,1.65643198471896,1.67681756014183,1.44500634600683,2.8293,9.09860218143482,7.88430383803818,6.42642010784561,3.91745883981618,0.41087514893187
mp-559065,NaI3O8,1.8764712148072,2.05814275015121,2.05814275015121,3.2246,11.8102380439591,8.19756246994442,4.54200610794824,1.6293145931322,0.833922044530905
mp-14988,K4SnO3,1.87495448211417,1.88004923073839,1.8658585852095,2.1096,12.2345660142577,9.00197428349619,4.45631191280206,5.19744395979456,0.416803076271067
mp-28611,ThTa2O7,2.41181416987296,2.21741511449706,2.34279277145888,2.659,13.1476223099227,8.02287013172566,3.46930588197288,19.9960851577408,0.338251885285516
mp-541299,Zr4Cd(PO4)6,1.78137773647253,1.78164360633658,1.78025088681343,3.7527,12.9848249270272,10.0260657487301,11.8204155480269,78.6163040549496,0.097319402450615
mp-642834,BaH5ClO3,1.67226608528667,1.67226608528667,1.63044810711657,4.9758,14.041248231883,11.6516946137125,58.0512573500339,0.503094792610492,2.00492313588763
mp-769915,La4Ga2O9,1.98599281468992,1.99912651675676,1.9783315242901,3.8893,11.2989069367327,7.87697760989494,25.2419131071115,0.552744928264355,1.8487693858417
mp-11022,ScAgO2,2.44027232291808,2.44027256264541,2.36721896748062,2.5104,12.7270142138522,7.52565331271078,2.33758439207313,0.920972413854402,1.5136008944547
mp-540981,CsHSO4,1.51744244042402,1.47976779597341,1.5013828991966,5.2834,13.0375454821282,12.1075284069792,54.1878011843588,0.514604760661757,1.96169325931892
mp-16801,GdSO4F,1.73673287525745,1.68121709187124,1.70263818235114,3.2089,15.6722129487411,7.74776612812328,14.4403315013687,338.004472613519,0.07220902850042
mp-541511,NiMoO4,2.13332940260055,2.13332492133758,2.25235015705818,0.9603,14.1369966474186,4.63091587458929,8.71479924551314,5.06688382734157,0.31210729839608
mp-5279,Ca3TeO6,1.92426291342945,1.92312524033148,1.90458439298446,3.5153,14.427202266713,10.3915327124438,6.23484546540729,0.626280597687689,1.75711727239863
mp-27700,Sb4Br2O5,2.34093630840311,2.3077929499849,2.29470150346401,2.7697,12.0556808289739,7.38134923147521,0.783131436908545,1.74450290778308,1.85015405587419
mp-554854,CsLuP2O7,1.61650598514203,1.62693038265317,1.61642126934781,5.2119,14.0115911268781,11.9198328308773,19.0012973433932,0.486409308488867,2.10850969360164
mp-7048,Al2O3,1.78349805718986,1.77654894387968,1.77676968400522,4.7304,17.4857761016723,13.5173258775571,3.97637129681462,0.382301849180119,2.8672197129073
mp-4736,NdP5O14,1.6392594822053,1.62499585845626,1.6575817445906,5.3904,14.6721694245369,12.313863761434,33.4300568614103,0.594870163141333,1.71095229453153
mp-2920,LaAlO3,2.17400728149655,2.17634829933078,2.16462313117087,4.0741,12.1110511498832,7.81902319488987,1.84765369187922,1.14743482886742,1.41273615648096
mp-13627,Y3ReO8,2.4831060106246,2.43835329269571,2.4136928118549,1.7591,11.2541450481932,6.59102471317957,18.2808896856746,7.2574601452856,0.192491184181963
mp-17941,Na2B4O7,1.52353498154785,1.51228001706033,1.5194222553326,4.6724,13.8121466135602,12.6374785156814,668.414554075515,0.65008496406232,1.53975654390947
mp-558603,K2Si4O9,1.50461524649992,1.49905570276758,1.502930437512,4.5242,13.5585141641278,12.5645140535626,46.3108895453754,0.535383397819965,1.88941353324568
mp-553930,B2Pb6SO12,2.04092531220523,2.08116632684656,2.04876956244474,2.7033,15.8909912198308,10.7490324338285,3.64381843213711,0.702854844840107,1.69720626390716
mp-6586,K2NaAlF6,1.40206160706297,1.40206177467328,1.40206163559239,6.8578,14.0463718286503,14.2103644995565,6.23443794323003,0.554068819518018,1.96522933340064
mp-11107,Ac2O3,2.1141367860193,2.11413710766355,2.12355049386635,3.7588,13.6162940594905,8.98284471042828,1.91901715023212,0.313483939357227,3.71105617025811
mp-558023,Rb2Sb4O11,1.84013000627673,1.84513817368781,1.88014114629727,1.8418,12.4735402093388,9.2633691395801,24.4355438670255,0.394718359866695,2.57437594571651
mp-16035,Gd2TeO2,2.83678512228191,2.83220226325734,2.5974839941759,1.2481,21.8471179152493,5.78921543668121,1.5505258021614,31.0166897919977,0.677183215032703
mp-557384,MgUB2O7,1.85891638865227,1.67870605526995,1.8328277933292,2.2225,7.84058168118695,6.0242441723095,99.5220277247456,221.786744785582,0.014556862515252
mp-7652,Na5TlO4,1.94578369301421,1.92152675235085,1.92211983757517,1.1596,10.4269354733064,7.46584169078582,39.1248278524019,0.357062565882734,2.82618884291915
mp-762,PtS2,3.62911876769003,3.62911873049092,1.98947175903555,1.5189,12.5175596880948,6.1330327101162,1.75557203102321,0.565883393201471,2.33676342607183
mp-8871,CsNa2BO3,1.69404495217807,1.71232146806609,1.66302782297832,3.3406,12.8827623528155,10.4840345069606,10.2806806329589,0.445225370927241,2.34332331843729
mp-559537,Ca4P6O19,1.63690851607535,1.640762286256,1.63408929070599,5.3844,14.2869745396548,12.01671072885,146.103739514648,0.552709976991251,1.81611159300963
mp-13973,Gd2SeO2,2.45020380172752,2.45020373438618,2.46567877469876,1.6796,19.859431084649,6.75087988786973,1.44282112542853,2.52639756149983,1.08890712953425
mp-542630,P4S9,1.83649230327818,1.89159357685524,1.81486530354184,2.7184,8.38231870182594,6.24879613486252,24.2953664151872,18.0775524676216,0.096477334824254
mp-29312,InI2,2.249671858294,2.1782614512496,2.12928004499173,1.8545,10.7985389580153,6.93370623174594,5.10967796398321,0.618665414691965,1.81208963121043
mp-5769,Li3SbO4,1.92369755159173,1.80891784501121,1.88192522699495,3.056,14.665609718236,10.8020235726963,5.43683256417933,0.577820717807866,1.9145712336758
mp-619661,Pb3(IO)2,2.46571156869574,2.41183030704898,2.43534189591523,2.3853,14.1963512566086,8.3344116478293,2.8881338784921,2.80663476945078,0.702542923106327
mp-20254,Na2Te2O7,2.06838157021377,1.98987141795645,2.03803249974087,0.7115,10.6747807543368,7.29801537426271,10.6426114751777,0.446369435745788,2.33425865896561
mp-30130,Bi4I2O5,2.58653908727473,2.51508855311299,2.54938381182591,2.3702,11.745657830833,6.65240622575343,44.0897085238899,1.00153138288945,1.02115198861925
mp-32538,La2W2O9,2.14968990089268,2.20066013505039,2.19740861470961,3.4213,11.7519104470092,7.55505232416844,20.4650543467006,9.75576963078837,0.151367229669553
mp-5163,LaRhO3,3.6451413635139,3.79231168022883,3.50942717120615,0.597099999999999,8.47549952040068,3.67018729527885,2.72849090828164,10.6628425650332,0.460286584441193
mp-3466,PrAlO3,2.14607580714196,2.14902053270787,2.13426966899687,4.167,16.7534248090478,10.9383628676125,1.94326774537237,0.903478951640652,1.62142977513243
mp-558548,Na3B6NO13,1.53164578803325,1.59829802915476,1.55376259447832,3.3314,13.5744532103572,12.0279276009169,9.20538681800167,58.0394078778263,0.125861718212369
mp-558592,Sb8Br2O11,2.19950207319748,2.30621509187673,2.3059558321876,2.7446,12.1462590017607,7.55504647685058,3.55148261151099,1.1977622809224,1.11646275384104
mp-3956,Sr3UO6,2.01284861080013,1.99709087925412,1.98193883608955,2.2331,9.05422635004673,6.28541658931422,4.21731233480489,245.290752822661,0.241194636563663
mp-3919,KBO2,1.5465441539122,1.48863069967,1.5589511025045,4.1301,13.4774587015147,12.2092420314729,9.3041245050924,0.612038651338775,1.74136295410632
mp-21137,Ca2PbO4,2.21684830333517,2.10765537268311,2.16587177136598,1.6762,14.2762842710795,9.24650290897569,3.48749904980237,0.393950586283013,2.82512784881111
mp-24460,MgH6(SO4)4,1.49595239563296,1.45442201234717,1.54072030232616,5.9617,14.1903094984154,13.2045173562289,44.6279295487613,0.569721101701252,1.77765229044867
mp-32532,VRe2O9,1.92032079872088,1.81383113602121,1.76841830741485,2.0601,12.0804173317293,7.70777603310542,629.343362512989,21.0130464946347,0.049178439827816
mp-570005,SbBr3,1.87328736983945,1.78108166853741,1.98387357460096,3.2111,8.79747475470035,6.45444378978338,2.8851387150156,1.42074910093428,1.05045782924797
mp-31118,SmScO3,2.22169086733506,2.21250941918899,2.15878910734699,4.3579,13.7806601388682,8.80807273282951,2.81430921465735,2.83817966700141,0.707665493888652
mp-18343,BaMgP2O7,1.64757255075459,1.64276838598751,1.62803245053654,5.3232,14.7808994351983,12.4143883236108,63.6381641518058,0.510530286368488,1.97446149369905
mp-696272,HgHNO4,1.92103722244,1.90081231845756,1.69075664422767,1.5608,11.9690971037781,8.96905260535276,26.5377315445197,0.7097269769998,1.44667471335973
mp-557952,RbInP2O7,1.6259850460567,1.62224717290553,1.63323655359534,3.8791,15.0563261856881,12.7476987989807,7.93272872705135,0.537176931701001,1.98764406226687
mp-6726,CsLiSO4,1.53065087136159,1.53472052830475,1.52962258743783,5.3326,13.1047662291937,11.8690133895972,19.356379860527,0.552929731705242,1.86021062456712
mp-542099,Cs4PbO4,1.84701039791334,1.87784805562111,1.85096220382805,1.7689,10.199135319229,7.56102057260129,18.0776620995134,0.544424566171592,1.89211864502042
mp-3889,NaBO2,1.57898098151941,1.51193313674911,1.59178553203627,4.1074,13.8403003908496,12.2664680732317,3.34581980909588,0.585504099641324,2.00681038223257
mp-29504,ClF,1.89169053494487,1.74074570227819,1.3705165522532,2.0481,8.4871910161274,7.00171599040778,17.2347965326911,1.64646411922408,0.665384310605294
mp-505465,As2Pb2O5,2.14778123420427,2.16129272427406,2.19993286033915,2.9575,14.2935062657682,9.23520391540939,7.06164778957394,2.69156423112838,0.513141175060574
mp-8346,Lu2Ge2O7,1.92625908693509,1.92625908693509,1.91216985647196,3.7065,15.1418065513674,10.8842288598022,19.8312389221609,0.427198184341702,2.39125941192875
mp-27972,AcBr3,1.94766235266794,1.94766238604128,2.02969482681511,4.1077,11.2372989175581,7.87946599942655,2.60030144439389,0.978446811080473,1.4065987591593
mp-7719,NaTm(SO4)2,1.63579246238635,1.59398276653168,1.61774114740276,5.8715,14.0569918215205,11.9913032537113,76.4003818315267,0.572322305109068,1.7603561545921
mp-8724,K2TeO3,1.68320107236183,1.68320123277046,1.62140025595163,3.722,11.4958790789477,9.51384710367431,4.80341750048349,1.31947111020908,0.966064530069597
mp-8376,MgAlBO4,1.73579298304838,1.72853806726956,1.69517899349892,6.2349,17.7629660012279,14.1989605042034,8.106263704388,0.449007182343044,2.35049726139655
mp-558122,GdSClO4,1.8755429507212,1.83900399945188,1.88662660852645,1.9284,18.4587717618095,6.20833831330252,6.01171028429854,609.880687228931,0.167981679591753
mp-20098,Ba2PbO4,2.27102192855992,2.27105557615836,2.27253596671208,1.5342,13.156181915042,8.18030431734018,3.39861855123988,0.471440998858436,2.41539340307897
mp-5121,Nd2Te4O11,2.11047604819387,2.26552783033005,2.04168186552166,3.4541,13.3631280973067,8.73836526257581,3.3323551249563,1.75120827101269,0.871122370769365
mp-17874,Sm2Cu(SeO3)4,1.95659454409952,2.04079140776317,1.94758402129408,1.359,13.3515393533126,8.02125525863776,69.6018516520623,43.1995281985757,0.03751583481738
mp-554825,K2SnP2O7,1.61156214276707,1.68576362518593,1.67835057422459,4.2339,14.2337858897651,11.8097351525243,19.5508295158385,2.69029341382068,0.422855392580839
mp-6692,Ba2PrSbO6,2.08448982487322,2.08668567350236,2.0757430235942,3.7711,14.2451434312605,9.53362771917659,3.0318243998769,0.419444904598256,2.71393775076155
mp-697683,PH8N3O2,1.55712637573191,1.53804197276927,1.53014452258602,4.5076,14.7199234837007,13.2308630705955,12.5994693829028,0.536041481790882,1.94489568778772
mp-505702,Pb2CO4,2.13981432839394,1.91921358634207,2.09838252232523,3.5059,15.8749293140883,10.7586570365279,3.69742626002786,1.438828060192,0.965468478966866
mp-29521,RbBiO2,1.83310927661174,1.83169733307662,2.19454417134857,2.2003,11.4596472661088,8.11637880714869,3.67240285145536,1.07292825445971,1.20433004956853
mp-3848,BaGe4O9,1.87246759918563,1.87246756180181,1.8544110817184,3.0544,15.6731651141266,11.5734015709075,46.8396743997048,0.386786808965544,2.6067530009899
mp-559533,NaLiCO3,1.5709357307032,1.57093582618769,1.41372672040957,4.4792,12.8060643053842,11.7158663998998,31.1990974446202,0.700929458953117,1.45872929812592
mp-30950,Sr3GeO,4.25497589887416,4.29715230239748,3.47616151667324,0.3364,1.63329460693347,0.661160677240163,0.362681800957458,0.35206852418386,5.59759403603868
mp-554818,KTe3O6F,2.10033309739193,2.12765194757037,2.06132147905173,3.1186,13.6606903891072,9.08917094529468,3.93218088712639,1.59358251900247,0.881828723878665
mp-542512,NaPr2RuO6,2.40288398596353,2.43476602366634,2.36693221913937,1.5284,18.620310468041,6.14153118682878,3.06613246014535,2.78620976094611,0.685054292148732
mp-21838,Ce(SeO4)2,2.29247140222076,2.355035135619,2.22004231941646,1.2939,4.92127723226501,3.04049039727721,28.8549606224071,120.4840896853,0.042955937173185
mp-12932,TbTaO4,2.19329821729741,2.14614715012741,2.12608864114364,4.3564,14.4889300782492,9.41482079591974,3.11476263962131,2.075044086958,0.802969222867232
mp-569868,MnBiPO5,1.93783997791355,1.95168375255829,1.99967621629103,2.961,19.5654271018977,9.96113969959161,10.3237429281914,1.7770904707339,0.659581645826519
mp-28670,Ba2Bi2O5,2.37259765868552,2.16389843107296,2.21837275497154,2.0391,12.3422026734582,7.73039065229081,2.13662602059122,0.724246236464001,1.84877349428879
mp-23743,AlH12(ClO2)3,1.55127428909268,1.54447178025369,1.55584465805555,5.1388,14.4231556732604,12.8802137840196,4.90854160694421,0.473325714563628,2.31643656215929
mp-18318,Tm2Si2O7,1.86662935796049,1.85565528318166,1.85039050473137,4.735,15.2397205824459,11.3037896774846,188.895351159681,0.47164978085267,2.12551118372669
mp-6267,LaSiBO5,1.86402943109813,1.86402959472214,1.874033361496,4.2086,11.2299653831728,8.28864709478008,8.09470677135139,189.868322222902,0.128804328050276
mp-740719,Ba3In2(HO)12,1.6695217878183,1.6695217878183,1.6695217878183,3.2604,13.3845304181491,11.0290238936054,21.8568011560618,0.438649317350391,2.32547777100783
mp-22876,CsI3,1.66636646029617,2.01657699084364,2.16777435172575,1.9682,8.04034375448158,5.70222757643661,8.52743824099414,9.75202861986896,0.219811279888825
mp-12933,TmTaO4,2.18063109443115,2.1499993372092,2.12429231745539,4.3864,14.0695906930494,9.15510910776252,3.54090482368688,2.55233088179994,0.674212421564065
mp-3094,SrAl2O4,1.70386175202098,1.69527255035879,1.70039993530934,4.2367,13.8611126175219,11.2120388245809,7.34575668775401,0.425546245440558,2.4860538764899
mp-557401,Na6PbO5,1.90299560693135,1.96030008927205,1.94864622494695,1.0357,11.6746647880838,8.32976211126304,10.9674555637687,0.330425423217744,3.11758036200148
mp-8609,Li6UO6,1.78488582828146,1.77257837062286,1.79122087973538,2.1712,7.85914474225155,6.06236156328587,3.969575103398,87.5202302275603,0.26334206028004
mp-550514,LaTaN2O,3.71315391412745,3.54816938716291,3.30992232537261,0.840599999999999,12.1689644522852,5.40429163037285,2.17567990254453,1.24102405294693,1.26541259132881
mp-25155,CsV3(SeO6)2,2.2886862629028,2.28868627601076,1.86435076098893,2.3985,10.6612812084701,6.94940829457943,601.940535656677,14.5544207029054,0.070368940671136
mp-555322,Eu2SiCl2O3,1.93867064247644,1.91951258917466,1.93373028626021,0.6428,2.31748128887761,4.14391220691641,331.146213916068,0.465762383113318,2.15003734116453
mp-542476,Dy2MoO6,2.18836467938961,2.16028463170944,2.19337641776326,2.1831,12.157434130869,7.82153506759029,129.721132686785,36.7694908840208,0.03490530451481
mp-27220,Tl5SbO5,2.62539970861581,2.62482946493672,2.53336481186583,1.4702,15.9088162516688,8.88954274461035,2.75863325742339,1.01899967979881,1.34385292578714
mp-17722,PrTaO4,2.26511950015888,2.22543543379717,2.25685509503823,3.6783,14.2332247302033,8.92299520686973,4.14811570923079,2.64851159153719,0.61864387198193
mp-647343,PBr7,2.16438238303679,2.33172028554027,2.11400545410839,1.2227,8.18488799030222,5.22008309057946,15.3382445074146,2.70250276812607,0.435223882324587
mp-566555,Li3Nd3(WO6)2,2.08270101070701,2.08270102511138,2.08270103711502,3.6864,13.49866661972,9.03256065891066,6.81344658240275,1.48995148503142,0.817931390554802
mp-561448,Na4Ce(As2O7)2,2.05307421931113,1.90858033365117,1.90858033365117,1.5533,6.40460802840397,4.52851564233704,43.9395188182388,129.36793667622,0.030488446626367
mp-560921,NaAlAs2O7,1.81050160452842,1.75220237701014,1.79125144801058,2.7489,13.7396259405142,10.5882848406552,40.9999325661294,0.465375131416361,2.17319440459153
mp-9646,La(PO3)3,1.684725482089,1.68763252812927,1.62816946599548,4.6322,11.3624787705948,9.37848901539616,195.782752941167,1200.75240184702,0.00594051337008
mp-554636,Gd2B(OF)3,1.83676545045904,1.8564916859496,1.79897307372845,2.8473,15.9172262414095,7.40596742636622,12776.6933752578,9123.53478641345,0.000187874152621