MP_id,Formula,Ref_index (1),Ref_index (2),Ref_index (3),GGA direct band gap (eV),Effective_frequency (eV),Average_optical_gap (eV),effective_mass_valence,effective_mass_conduction,effective_mass_transition
mp-4421,LaTaO4,2.27899776656319,2.2308165814338,2.28304871827125,3.565,11.7622970711929,7.33298334324707,3.3124564115006,2.35954970149591,0.725700443302971
mp-753153,Dy2CO5,1.92336272190141,1.87130243680705,1.96761737896371,4.4998,14.7729369201167,10.6231316342406,3.73542366699643,1.29269005398523,1.0412878912298
mp-4408,Sm2Zr2O7,2.20869013670999,2.20868990127632,2.20869000993802,3.0697,13.6546391802425,8.69092487678254,1.54103214963008,0.814442800598049,1.87674903890018
mp-27984,PrClO,2.09714659239644,2.09714659239644,2.0348490705701,4.6986,14.0772187433034,9.44455549838409,3.26768102790305,0.583723407662508,2.01916756117296
mp-32633,Dy6Se11,3.54466082298434,3.56783873094062,4.06323877959443,0.672800000000001,11.7457432480265,5.01114669075125,5.94832280417485,0.53376047520237,2.04161414639485
mp-771872,V2NiO6,2.08120176100252,2.08409866369133,2.19796746563729,2.7709,10.1648841831276,7.47219022872344,18.6100854603016,20.6278420519171,0.10221247292441
mp-555487,SnO2,2.1654596532838,2.17130532859844,2.21230716447784,0.8384,16.8692661549162,10.8430557991633,6.41334645274998,0.196140245577277,5.2543175561922
mp-6764,BaSi2(NO)2,1.98120816422707,1.93490348079691,1.93065927599875,3.0105,14.7176641770433,10.4441706199684,2.58935470711839,15.5698107984547,0.450423462397556
mp-553082,PrBi2ClO4,2.44935521923628,2.44934967083101,2.24655317987356,1.4928,13.3009902060327,7.95597212272659,65.9291532328005,0.365654009744956,2.74999354286704
mp-28574,KPbO2,2.25129632656388,1.99484259278771,2.2886384817179,0.6474,5.32500988377508,3.42907548375611,13.0687112932072,1.40513856070179,0.788192226069027
mp-754237,LiTmO2,1.92782009534085,1.92782009534085,1.94798377046627,4.3349,14.6232876904026,10.4471728049605,50.8305775604324,0.46330400767439,2.17808319075289
mp-2097,SnO,2.74103625112839,2.74103625112839,2.61445193874357,1.9251,18.0388660624913,9.77544137088123,2.06708023233699,0.325336351692739,3.55751613293568
mp-3081,BeAl2O4,1.77636700599848,1.78476988432683,1.77844391533723,6.1181,18.7059322459005,14.4532695815976,2.98318805783253,0.422824161247322,2.70026118583811
mp-757224,Th4P6O23,1.78878530293605,1.7976672161443,1.75824141118334,4.1911,11.5774905844258,8.93709585223451,7.3846144748558,14064.5850435703,0.13548778391859
mp-27990,B2H5,1.50935079752853,1.48250243844656,1.4913196303945,6.3791,12.6394763221029,11.7864784714346,25.3618570908434,4.30470966385142,0.27173299338628
mp-6803,Sr3Pr2(BO3)4,1.82605978543968,1.85018390707519,1.8511726580738,4.5816,14.5724782143693,10.8922139907608,9.96543068784957,32.1660280534845,0.131435592417926
mp-555932,RbEr3F10,1.56685236700846,1.56685235743512,1.5662614373086,7.2863,14.0476317061631,12.398645739413,48.6136411361134,0.657196900002167,1.5421843521799
mp-756702,PrBrO,2.01269093007347,2.0126907487242,1.90099884008381,4.0569,12.2546181572393,8.59102973692331,5.41355598078723,254.384396450511,0.188652525266419
mp-18652,Sr3HoRhO6,2.23632509711804,2.24112546279765,2.23201381268127,2.2125,12.8323416668508,8.08260320260226,5.64555947190059,6.6572026552331,0.327343606226071
mp-1634,MoSe2,3.76580955174316,3.76580909367429,1.94226607600504,1.4626,10.844816478551,5.21892209761207,4.92405656048909,1.31525117986184,0.963395634193081
mp-27213,AuBr3,2.73486816684095,1.54774854546855,3.01683578936607,1.0285,6.76459177945552,3.97722351494339,131.558564209387,91.7230222485958,0.018503565763485
mp-541289,Y2S3,2.57955087563707,2.5789139787903,2.56255720911749,1.488,11.1266975913843,6.2568591879743,1.50294524319873,1.71525546409336,1.24836377044859
mp-558645,PBr3O,1.5888308185581,1.52299013457081,1.62035789873719,3.1477,8.71373567524368,7.63226915002077,9.35943047460563,1.49622301491206,0.775193672177288
mp-771046,Mg(NO3)2,1.564921390997,1.56490071889561,1.56489932903047,3.7276,11.2494099107201,9.94138370831731,39.411214294317,23.0307218747701,0.068793751647729
mp-5450,K2ZrF6,1.51853593635449,1.49614431456327,1.52187472874741,5.5614,12.7426628890866,11.7156765123462,34.1805333888452,86.7111799256587,0.040788957070063
mp-558243,Ba2InClO3,2.05077733554864,2.05077733554864,2.00768724656008,2.3248,14.0560670252735,9.59177698385716,14150.5427723323,0.407280229538545,2.45538258285729
mp-27922,GeI2,2.80437529228882,2.80437548841092,2.06830400086641,2.417,11.6701281070117,6.59196891438194,7.35249389744261,2.01782205412177,0.631592112375906
mp-553884,Ba5Si(Br3O2)2,1.8397053813043,1.83617607815808,1.85934113330502,4.2625,11.81832298864,8.82185080281796,7.31400294343606,0.378737755966831,2.77707341800708
mp-20078,Pb2O3,2.75466656965957,2.70043895876208,2.73880620891658,1.1124,14.7472313515617,7.91831027641899,2.91679680867891,2.48693969363609,0.744942468143221
mp-29866,SnCl4,1.48820351430844,1.49786296102147,1.48951086937961,3.564,9.27092884601619,8.66300393678405,72.7985722353625,2.06466520009172,0.498076560740598
mp-561525,K2Ga2B2O7,1.64799853762071,1.64799857706249,1.56180970991987,3.8049,15.0075736767759,12.7729345450725,9.58361790451898,0.546746448825327,1.93334609042061
mp-774848,H10SeO8,1.47505047371268,1.53884222388132,1.53816167875812,3.9706,13.4218583900668,12.2904978507829,94.2813269106207,0.880499928233459,1.14632498857811
mp-647579,ZnBr2,1.80398190678288,1.80595887273216,1.81714542621112,3.2203,12.5602845367851,9.5534323989943,7.62160287874269,0.390663558690849,2.69095332312208
mp-7974,RbSmO2,1.98452892395148,1.9905671553605,1.86148112265475,3.6224,13.9670872999169,9.92720802802333,2.64442887763095,0.617817336833098,1.99675487628066
mp-626724,LaHO2,1.98226794858818,1.98968157753948,1.92184772549752,4.0238,10.8018322576794,7.61014894966705,3.14806484843167,0.611617417709352,1.95266449255227
mp-3735,GdPO4,1.95996137461941,1.88715786833005,1.887020868989,2.8924,18.172846783181,7.14727756504458,7.29240528365045,309.281820958872,0.140362263573283
mp-546266,DyBi2IO4,2.61520799937596,2.61527320752536,2.41028165988957,1.8148,13.2220485567774,7.49650560598558,6.28620999945012,0.3025114146867,3.46473875012678
mp-772191,Tm2TeO6,1.98347943271414,1.98343362631574,1.92760382859134,3.169,13.7141657340659,9.6608961301132,10.7927685680858,0.646274226644197,1.63998540704313
mp-31212,K2MgF4,1.41243997040582,1.41241043255847,1.41068206907155,6.5629,13.6482110934479,13.6788109447434,9.96344268813801,0.56630620122973,1.86619606806645
mp-10476,NaEr(SO4)2,1.63834258017058,1.59584866763738,1.62063661256927,5.8686,14.0216582198348,11.9417173035734,101.56491858619,0.72788955828252,1.38368071151226
mp-626411,In(HO)3,1.78997949150263,1.78997949150263,1.78997927082969,2.8297,17.3358309054213,13.3210687674119,3.43672523535739,0.356389225883524,3.09689563584694
mp-22903,RbI,1.64576848311055,1.64576878388187,1.6457685651391,3.777,12.1893234097983,10.1961606533616,2.91476451943171,0.358463126230251,3.13276810230569
mp-22881,CdCl2,1.82887203488926,1.84112603316557,1.65209337205861,3.608,13.9300503830027,10.7976585555875,2.97625001784345,0.455426562448701,2.53173696646196
mp-27698,Y6UO12,2.11776990015441,2.10847533065957,2.12325623277079,1.9585,10.223304304143,6.74656303761861,5.28348932580704,144.016713320003,0.19621249824572
mp-756148,Sm2Pt2O7,2.73918927421965,2.73918927421965,2.73918927421965,1.6254,12.5430960981782,6.71990784101228,1.72121016634952,1.11401894315079,1.47863737935558
mp-8450,Rb2Li2GeO4,1.69236736260187,1.6751306486361,1.70014418506196,3.4536,13.1887352220999,10.7368441064581,34.2131396465399,0.437277800535248,2.31610429091506
mp-28885,PSe,2.61545517071121,1.90717334031283,1.93967074009998,2.3624,8.42947310196531,5.47975117946956,10.4029995448344,9.14829616866307,0.205436093885732
mp-1819,SbO2,2.23736817041809,2.34281589972409,2.35165043320643,2.1332,14.3857050645699,8.82003727946202,3.99787120763555,1.47529295102065,0.927964597370531
mp-707182,UAsH9O10,1.68959980764677,1.72132384518428,1.6057147816471,2.5299,9.04793530811537,7.44315182378488,39.9045570993534,921867.480466654,0.025060879241497
mp-8041,Rb2S,1.80491670444927,1.80491670444927,1.80491667674716,2.3057,10.867642854906,8.28409473497118,5.23674495995372,0.360720320585521,2.96318916358393
mp-867180,Pm2S3,2.51261568091899,2.51261578240685,2.47097674007668,2.5554,10.7276739438905,6.17485529835649,2.27422521176593,1.04652414949201,1.39525431241701
mp-861906,BaNa2Mg(PO4)2,1.67377462341858,1.67376421278506,1.66672506131035,5.2908,14.9694761713333,12.3204745850282,5.33208081246292,0.459862972129937,2.36210486044786
mp-559706,Li3Gd(BO3)2,1.69331535161056,1.77521834150056,1.72266347845422,3.3038,16.3331933080491,8.09748722352282,7.11017168620266,2187.06198591587,0.141100814360542
mp-23268,NaI,1.82471175805934,1.82471158268917,1.82471163201203,3.5255,12.4553626209522,9.39573928454282,1.83721435816687,0.280254426960055,4.11248857535598
mp-23305,EuI2,2.10882476986591,2.10389662531218,2.12924541093787,1.3398,3.06207383237945,3.56340292649915,157.262424806237,1.66192190363477,0.608071789383009
mp-755013,Li5TaO5,1.88651530340997,1.95599107615551,1.86727582054714,3.8237,12.975322978724,9.40918021269953,6.18027371821817,2.87788870831966,0.509282084422377
mp-642646,BaP2(HO)4,1.62588463305365,1.58936017944329,1.61719001666471,5.427,12.7677960961637,10.9283601467746,5.20210400956445,0.871654093560692,1.33947399432824
mp-546621,ErBi2BrO4,2.46909071319788,2.46892176870795,2.29874414191749,1.6822,13.5507394435859,8.02253953629234,1.02733960950903,0.307532924644118,4.22507230938613
mp-754110,SmAgO2,2.2231346967739,2.22313809737497,2.1790771119903,2.6055,12.5927917933523,8.01580925493648,3.7154728395689,0.669915784725766,1.76186968835922
mp-556801,Na3B6PO13,1.49493811243141,1.5834235062042,1.54197762629683,4.7576,14.2688429322036,12.8413152622567,569.961742572395,0.5889678413272,1.6996400754501
mp-676881,Ho4Zr3O12,2.1473183578594,2.15390484005213,2.15982415487928,4.1504,13.5443322427873,8.80621969382098,7.35724904026854,9.80207159793148,0.23793961913259
mp-12641,Ba2HoNbO6,2.20996810384222,2.20996820112869,2.20996845452599,2.8567,12.8385894842718,8.16756140384685,2.30439750733819,0.73937797337979,1.78644112940339
mp-29266,CsS,1.71633512461873,1.74741192052704,1.73008894569037,1.9083,8.37211108775125,6.64791325817887,2.24085257186827,0.761613733634834,1.7592602530489
mp-542237,SmP4HO12,1.61327533917803,1.60867239983783,1.63547708941458,5.7764,14.5477657963078,12.3826418029681,41.4240760073166,0.561263206892589,1.80583581884499
mp-765493,Ba2Sb2O5,2.04790851846463,1.9240174713344,2.01399858490516,2.3822,11.7379506355108,8.15566254670463,9.98381586955493,5.60799116580561,0.278479074997273
mp-541610,GeBr2,2.26000636061052,2.07720871844887,1.80540286639852,2.6006,10.6880834683039,7.25871849280756,13.4485340615072,1.79009649245081,0.632986650930088
mp-771132,Ba3Ga4O9,1.84327512325209,1.85763237751714,1.8555225625144,2.9775,15.4057030665336,11.4582999199128,9.37741067359796,0.38589198640427,2.69803796657763
mp-755635,Ho2Pt2O7,2.67701395028117,2.67701395028117,2.67701395028117,1.921,13.1043385350813,7.1461334107246,1.67363196208224,1.21800316246653,1.41851886002825
mp-23231,AgBr,2.40595166618118,2.4059521711788,2.40595213377158,2.4432,15.6568598195919,9.28898636971744,0.671238296475471,0.204971182085403,6.36851849889209
mp-17770,CsPr(PO3)4,1.59106727701879,1.58588210469757,1.58577697044698,5.3268,13.890804842607,12.0802295883172,82.248815711689,0.550307548128518,1.82932392811918
mp-6663,NaLiGe4O9,1.81465582136117,1.83857167116216,1.82342242225986,2.6592,15.573322946106,11.742642431459,4.29401755495032,0.39999387721884,2.73292040857482
mp-6738,Al6B5(O5F)3,1.67781051671516,1.67781043625315,1.66987973519053,6.1675,17.0801046951757,14.0250102648609,15.3497519889575,0.544314554532408,1.90232062671534
mp-2286,Li2Se,2.07930248881686,2.07930214735617,2.07930244312846,3.3563,14.0285416624781,9.40042248193297,0.94820641740043,0.374422023826318,3.72540575120027
mp-754217,SmIO,2.2358666440555,2.2358666440555,2.04335661106915,3.6866,12.261608979955,7.91611062595634,1.10878594890521,1.3823316127336,1.62530274786029
mp-23831,NdHSO5,1.79123838447036,1.78166543155554,1.79752208609519,5.7638,15.2350320126934,11.7057585221738,10.1788377569983,6.72341597126181,0.246976961484178
mp-24337,MgH2Cl2O,1.60700897943975,1.62520172286397,1.59235709562899,5.3714,13.3725785552846,11.4662799187471,10.2419218289138,0.412641202053748,2.52105079605787
mp-758984,BPH9C2,1.56418953135482,1.58262691750141,1.56117837225603,5.6773,13.2405222269058,11.6638868138568,19.6439977733767,3.3483997468567,0.349556258987455
mp-6500,KRb2ScF6,1.44321554176776,1.44427187883722,1.44361295020514,6.6152,11.7870198053584,11.4733839287636,96.0846804100803,0.57516287700109,1.74904542698891
mp-556549,Bi2O3,2.17655764224153,2.35298616018029,2.44806718657802,2.2745,11.6334001012585,7.09421821735853,3.03846270025938,0.82497884351004,1.54126609504323
mp-560629,K3Al2(PO4)3,1.49694311181153,1.50297311353198,1.50299144375475,4.4329,13.6535471390372,12.665014645622,9297.64091013297,0.519389727134729,1.92544405536297
mp-6574,Er2C(NO)2,1.89262133032469,1.89262123786034,2.21243330294949,4.0115,13.8298714385249,9.5924005935893,2.95612317344553,0.760417793555667,1.65334744172689
mp-8127,K2Mg(CO3)2,1.61923732046912,1.63048819989597,1.53205186596277,4.0486,14.2204090687224,12.3125737335105,17.5903115775098,1.26006927418206,0.85045663775372
mp-10461,NaSr3SbO6,1.9076027259364,1.90723797938275,1.90794613655627,3.1308,14.2621012491912,10.3206737761754,3.2236946512946,0.409415727733417,2.75270816960686
mp-22849,BiI3,2.31168451134665,2.35523803043344,2.07687922373931,2.6095,8.4447756609438,5.29649449387785,7.17403048965911,2.27892764415883,0.578194531419375
mp-772779,Ca(SeO3)2,1.72619980882863,1.65959163651785,1.95335073655501,3.0045,11.7611599269952,9.08806990377478,4.45374822494751,8.91549626652297,0.33669423539991
mp-540618,K3IO5,1.66831660064869,1.66831660064869,1.57958651551601,1.2686,10.0987012494439,8.48578413340368,326.661066052836,0.729685161657118,1.37351534750686
mp-23432,BaClF,1.70310543126373,1.70310543126373,1.69280073251402,5.4426,12.8572618518622,10.4011263608624,3.67760183057461,0.631898531838109,1.85444888993309
mp-7297,Cs2SnF6,1.49008201452135,1.49008189372262,1.46876748670441,5.3398,13.1703647036291,12.3964701427211,50.3388717868451,0.752477326896043,1.34880905982489
mp-510002,K2Sn(HO)6,1.64770010620865,1.64429036973401,1.65637254263647,3.6774,15.0374310264551,12.5488894743236,9.08599180239672,0.450450496893875,2.33005930249988
mp-561424,KAlF4,1.37908304318485,1.39131276498133,1.38389636533954,6.9091,14.1891543640458,14.6019169992265,44.2637857946331,0.570753643241175,1.77466124352738
mp-21452,Pb3O4,2.41082148447371,2.34980455783029,2.40398691136204,1.2045,15.1556962073226,9.04554830497734,2.80543782968526,0.464875518286852,2.50756409393902
mp-776016,K2O,1.82223833238136,1.83472932063561,1.83490946643152,1.3316,10.0972804632556,7.59349680838027,17.6093061150404,0.407021622875762,2.51366008435024
mp-23879,Ca(HO)2,1.65393351438321,1.65393351740631,1.58864834686598,4.1119,13.7504018112183,11.6037654297655,2.5927954917442,0.513447685157071,2.33330219188439
mp-23210,MgCl2,1.64082994243767,1.64729663691759,1.53392811109256,5.6595,13.4602058456008,11.5479559650823,5.17594258960153,0.43880554564084,2.47211529397242
mp-556878,BiPPbO5,2.06787452472339,2.06091324659725,2.0726633880107,3.4454,14.9698962454981,10.082430216398,4.90985092720262,0.972481234759273,1.2319696483462
mp-720376,H4SeO5,1.5472726941299,1.59675662516239,1.63836699490682,3.5177,12.7706102579084,11.0557093969078,20.4479382502171,0.727763207912113,1.42297799603668
mp-1508,LaS2,2.85213699004799,2.99671269727346,2.77231852246455,1.1116,9.22246554474855,4.76323953052638,2.48493543872165,0.447298356239948,2.63806919618842
mp-771139,Cs4HfO4,1.78120587524295,1.76401391434422,1.79177878098832,2.8316,10.1794972782341,7.86896793828044,52.6507334800565,0.436413290190952,2.31039901526753
mp-768453,Lu2(SO4)3,1.56546596577505,1.56530569857776,1.54590549517103,5.9635,13.0475984170501,11.5807630613064,6.49695287364495,0.61217011825906,1.78745116233048
mp-22957,SrClF,1.6970029964617,1.6970029964617,1.68054178168827,5.9367,13.8516789356378,11.2608032384146,7.0632641343312,0.611114402997415,1.77793242399552
mp-856,SnO2,2.21533158014777,2.14450577756275,2.14540284562131,0.6519,8.07899061244068,5.22249035392728,1.68458422957157,0.173742621910889,6.34925837416128
mp-30988,KBiO2,2.05085028951408,2.11705225490539,1.91559457610424,1.8496,12.2057236618841,8.36011323289893,2.44078072591087,1.12230306874951,1.30072989059796
mp-697974,SmP3H5NO10,1.63870538230641,1.63714742463836,1.64249206695192,5.4726,14.9761844722296,12.5784844664452,8.88256238578616,0.533085166386723,1.98845299491226
mp-28003,H6OF4,1.35953135307723,1.33456604182783,1.34869070583288,7.4368,14.6858284579007,15.7156515603719,23.066656209018,0.627477705785187,1.63703474015971
mp-2552,TeO3,2.31238636693784,2.28844047552039,2.42209362535803,1.1786,12.4469899330272,7.5503415465825,3.63133842240654,0.604414825128847,1.92987339677542
mp-541601,KPr(PO3)4,1.62679402506894,1.63235912715309,1.62828857393277,5.3482,14.6613353835332,12.3970340245479,47.1807441448357,0.566483961145557,1.78647013248485
mp-2201,PbSe,4.43996952579632,4.43996901790992,4.43996947737256,0.431,1.30905810225405,0.493070002645083,0.15920379731131,0.154077456826097,12.7714993315236
mp-6425,Li3In2(PO4)3,1.66820317107959,1.66963034831067,1.66093914397849,3.8029,15.4432106027514,12.7513503667858,12.1704804998032,0.600440194034216,1.74761082647826
mp-22922,AgCl,2.20719804276825,2.20719772109342,2.20719798387005,2.8928,15.3891754819286,9.80047832625011,0.827450857334182,0.276655000060872,4.82314123927312
mp-20878,PbO,2.63792951194682,2.4696966271184,2.37236354929003,2.3736,16.0930457457587,9.27911290387053,3.6542080266341,0.5215449346378,2.19103743997268
mp-28125,H11NF8,1.35272330504061,1.35150073251922,1.31727693747367,7.219,14.1586221763294,15.2714021525498,497.355274429593,0.601343641817359,1.66495330297583
mp-698205,LiB(HO2)2,1.61515206404846,1.53220341991525,1.49484749054879,3.5647,13.2054660014755,11.820053266769,17.0049587002005,2.23411800312978,0.50641030705075
mp-560028,UTe6(OF5)6,1.44633924443749,1.44859864006563,1.45215884461721,2.2528,8.82083422669511,8.54579197837971,2205.05028613524,2402036.5329848,0.000453920710235
mp-5073,RbNO3,1.50374757855167,1.50374758520172,1.51811984375411,3.2642,10.8894200861231,10.040529245761,365.002925194648,15.2885349000862,0.068148195239823
mp-12957,O2,1.47403251999405,1.81412283211474,1.82808538093821,1.4011,5.74888677478031,4.63473166715152,6.41333811445713,4.22984472275243,0.392340337536089
mp-753721,GdOF,1.94172159178395,1.94172117720336,1.85362986866311,3.4508,10.3184694024566,7.4498128142543,7.22742216569369,38.2090175730487,0.164533751255792
mp-19393,NdMn2O5,2.71506482243058,2.3853959126317,2.66381027289858,0.6875,6.68750538204389,5.65421217426425,3.20771941752279,238.592856107318,0.315939205106566
mp-12803,BaEr2F8,1.57765956086857,1.59157789944445,1.59881296592191,7.3443,14.2187901581459,12.3502169566068,14.566775082872,0.654137527566558,1.59737989056353
mp-755802,K2MgO2,1.7018621888978,1.72365571388256,1.73567058222463,2.5286,12.2753293888352,9.80916349762527,6.67169273520759,0.391505878172855,2.70412706438604
mp-556689,KZrF5,1.55644098828063,1.56137301757139,1.55410068850123,5.5647,12.5901061705509,11.1876173116521,175.878176640021,207.061752553793,0.010515230873957
mp-1779,YbTe,2.60334179853511,2.60334128189141,2.60334144130193,2.4631,12.9803763687257,7.23397158299107,0.543459059174153,0.306198263966859,5.10592284838722
mp-768585,HoTa3O9,2.27813194086734,2.37143548721023,2.27090465453748,3.4741,13.8947949672401,8.53053123524642,10.6993736007026,1.31006368600511,0.856785084995676
mp-560863,ThSe2O7,1.93305947140795,1.92782441627862,1.95473126030153,3.7518,11.1166186310702,7.92704952617577,10.8158347149954,6.5434717208023,0.245281107196702