MP_id,Formula,Ref_index (1),Ref_index (2),Ref_index (3),GGA direct band gap (eV),Effective_frequency (eV),Average_optical_gap (eV),effective_mass_valence,effective_mass_conduction,effective_mass_transition
mp-2898,Ca(AuO2)2,2.52967755455117,2.57150840558611,2.69150220880459,1.5977,12.3919198413176,6.91804152539842,5.56972334315742,3.39410347529487,0.474170744544051
mp-9297,Ba(AuO2)2,2.46309022977235,2.51514396804636,2.62753715292477,1.5571,11.9584346118768,6.80466827443868,5.00099378660491,6.46148639190768,0.35472340833968
mp-504620,MgMo2O7,1.71228570630021,1.82935480156256,1.71783353093366,3.6797,11.1639970732079,8.75482160654277,25.890680146713,9.16205821402932,0.147769718115786
mp-4019,CaTiO3,2.53397974143441,2.53091934679871,2.53397501763534,2.3238,12.1646067854092,6.92694639459312,3.29240417511812,0.900676657340727,1.4140057760857
mp-32407,TaVO5,2.19172406566155,2.18273477087804,2.22567473140169,2.1973,11.2580144534146,7.18914663618787,8.3967120928253,0.840454834215461,1.30892616762508
mp-5594,Sc2Si2O7,1.83752891405823,1.91571105336896,1.90825731493423,4.4435,12.6781125137787,9.26607415141793,6.53723856821382,2.42421757987828,0.565474015790677
mp-559319,Zn2P2O7,1.64744098225096,1.69418803265753,1.70591296085117,3.7174,15.2673193392825,12.4799143453844,38.1415772584012,0.457832266043952,2.21042414646609
mp-29396,Cu2PbO2,3.01462101432336,2.98500834839704,2.90171760169731,0.806,13.4952451370673,6.80371101718958,3.48012684742558,0.457759051101002,2.47190123271359
mp-770419,Sr2Zr7O16,2.20145618625491,2.20145637703771,2.24989427751617,4.0217,13.4166692208774,8.51070312342383,13.4694160005517,5.04582253988336,0.272426012057426
mp-3502,Zn2Te3O8,1.95916951027725,2.07508245378346,2.19364359457046,3.3208,13.7999432561814,9.26013721810934,6.26221502809985,1.81457929220643,0.71077983288133
mp-626151,YHO2,1.94563409458202,1.96367842326589,1.8915000555115,4.1012,15.0189287581669,10.7345585024497,7.10038921492713,0.489352511653327,2.18435398906364
mp-13133,K2TiO3,1.93255681158407,1.75802852934758,1.73375399927441,3.4122,11.6542100730218,8.86857667057278,21.1744296595061,4.45828194795318,0.271528424458442
mp-667291,ReHg2O5,1.94646140470342,2.20571390257214,2.0457311871309,1.4992,12.4195077585206,8.36887284243305,9.18901872619253,0.791637405530618,1.37203013275857
mp-766217,Sr4Cu2O7,2.96403872106962,2.96403872106962,2.58489674068424,0.8102,9.15203345725582,4.77244141423883,18.7818338659143,3.30946266103406,0.355406793463953
mp-31065,Sc2(SeO3)3,1.80857838923283,1.80857820676906,1.90357868500359,3.9542,10.9056953730418,8.16080050193561,9.40879484962648,1.41727740747995,0.811861707791609
mp-29488,Na2ZnO2,1.91527208249899,1.9236408006694,1.91630247351508,1.4557,13.6626929816237,9.83579989420743,3.79615574863039,0.299918512523862,3.59766338246152
mp-19440,LiVO3,1.95341617173607,1.77973667153318,1.79571724388891,2.8587,9.98657598808191,7.46262194984806,10.4203658112144,29.3083709760617,0.130085865590042
mp-9650,MgTa2O6,2.23115045212106,2.23115045212106,2.33494111917196,2.8772,13.8727957665752,8.64412007069044,2.13465705643693,2.56688282110094,0.858036904175915
mp-29787,Ba5Pt2O9,2.16715021168354,2.16715017015434,2.37735395135011,1.9522,11.2136851152083,7.06115286221124,12.1329201414424,5.25371437908521,0.272761912884385
mp-20343,NaAuO2,1.68981802274683,2.49145074805825,1.85096933794161,1.5185,9.31351977059208,6.42700223253157,3.05225962437612,1.55981386723411,0.968728261906755
mp-7470,RbCuO,1.82497863275163,1.99192346238504,1.96202244380639,1.178,9.51904165161021,6.8270755208264,83.9453363093837,0.968933513683551,1.04397507138577
mp-3771,MgTiO3,2.22363367711501,2.25413725624683,2.0630470619935,3.5109,11.4632929860904,7.37610613827989,4.39528920415253,6.38970801498338,0.384017988185341
mp-13602,Cd3(AsO4)2,1.96054127730074,1.94898620056685,1.92727571717178,1.7035,14.5013238199969,10.3065589193001,10.5603351721318,0.292279463612455,3.51607700500694
mp-555100,NbBiO4,2.61059582662656,2.53228135680062,2.46603793969193,2.5414,12.8056723896157,7.28439232984443,9.33562441396659,2.1064482309888,0.581849331237307
mp-16913,Ag2SeO3,2.19245424353622,2.15065832014293,2.20152837365318,1.8317,11.9111570991913,7.66050689532189,8.2030735118137,1.07504035483519,1.05210316615914
mp-559571,ZrB2O5,2.08026865813048,2.0747704788723,2.06274712943686,3.8784,15.3194369583992,10.2942733870603,6.05964398264292,4.57762628796277,0.383480027842114
mp-3637,YOF,1.87020259063022,1.87381600484146,1.80999026792964,4.9612,14.2869064865548,10.6305321823892,55.1147346798389,54.6878857347305,0.036429553629595
mp-6983,NaAgO,1.96984323234109,2.19511618599107,2.17003509418627,1.3668,11.5990073846904,7.66946843781408,6.70549387025318,0.676230322137246,1.62791754529898
mp-29027,TaI2O,2.38171264429612,2.81898624331514,2.15283220665244,0.924,9.07609934815366,5.30481239868048,8.75279329823153,7.02892385232329,0.256518531189391
mp-5455,K6Ti2O7,1.66576326349214,1.65344198870115,1.66982807198825,3.4611,11.0453999784455,9.13868103919506,33.233136973377,0.59064528865118,1.72315398303564
mp-607464,Re2Cl5O4,1.72115735480519,1.78614564355766,1.7659397073513,1.2415,8.71528398284461,5.85734905471034,85.3253233018303,28.8323292637491,0.046403138822433
mp-761354,Cs2WO4,1.63870224262982,1.645908405714,1.61993441533909,4.6189,11.5995227277374,9.77158271052931,18.3946972295039,0.547717083371439,1.88012359896755
mp-14100,Cd(RhO2)2,3.1413368969278,3.14133703858723,3.141337356923,0.8498,10.0108106611212,4.83645746748714,3.64500968114639,0.568315518435942,2.03393364135164
mp-19474,Ba2V2O7,1.85024094376922,1.85922554844753,1.90305193308012,3.5033,11.1131412461318,8.18818843688424,41.3867660148925,45.5043313205041,0.04613824313714
mp-23341,Bi2Pt2O7,3.18471806130464,3.18471793413483,3.18471804717466,0.948300000000001,11.5463673772191,5.52193778047567,1.61617929921832,1.23911876422154,1.42576837479111
mp-761057,Sr5Nb4O15,2.29303460942045,2.29303958971493,2.12824621930828,2.8313,13.5050306699822,8.50117875023536,14.8886545019846,5.7858419708639,0.240000928302118
mp-30002,Sc(IO3)3,2.00790682801767,2.021266360478,1.9895161044837,3.8537,11.5161866663615,7.96285704615126,10.3366374504466,4.29190669429169,0.329739937095858
mp-28365,Na3AuO2,1.75582586551173,1.85387748246749,1.85387748246749,1.9745,9.38606809824586,7.09345062043037,5.10960123673077,1.63091660607018,0.808862124242454
mp-29699,TiNb3O6,3.36153347298521,3.3872520647274,3.30411455915197,0.6635,8.23434584596384,3.79331019276576,6.89635707762252,3.46392090013256,0.433694287522741
mp-18852,Na2MoO4,1.70127091610948,1.70127086026888,1.70127076622153,4.418,11.6745063522988,9.43526031865696,9.03238227877031,0.614532569563818,1.73796581617519
mp-680761,Cd3(PO4)2,1.81426111681864,1.81141003088754,1.79022941546607,2.3986,15.3125279927228,11.6699191868052,35.3068420296633,0.354838039033696,2.84651026670722
mp-8409,KYO2,1.93541050942688,1.94210224499124,1.80313170068079,4.0702,14.2529824806142,10.3845941088997,3.60736321176564,0.741659618699308,1.62553820813756
mp-542885,SrCrO4,1.92075440387364,1.83680219675391,1.85067315320669,2.8733,9.94911526709041,7.33576483779278,9.47669695861511,10.277808808408,0.202819001800901
mp-28804,TcO2F3,1.60570175312852,1.61857646405723,1.64143524392527,2.5344,7.64682264255123,6.49681996013005,169.192449965858,87.1065019217406,0.01739062849211
mp-541559,Cs2MnO4,1.75389086889692,1.72096092343783,1.70912482867695,0.5825,5.95770680743474,3.95983924983488,0.01158735334388,0.011588283448581,172.59504203758
mp-567267,Tl4Mo5O17,2.01090704161082,2.09311073285672,2.06175685035845,2.6037,12.5622565698703,8.50352069433257,7.06119447840779,28.1121529082986,0.177190903254071
mp-31016,Ca4Nb2O9,2.18051280895114,2.16465642539411,2.11344661631185,3.2641,12.741338306927,8.28678196169427,13.0948168387894,1.74981609373635,0.647854721724424
mp-28273,K3CuO2,1.82515018286167,1.82515018286167,1.79530456190586,1.5218,10.1197971586528,7.672088839966,95.6358658683716,0.68140428173446,1.47801388073834
mp-4385,CdCO3,1.86450719762623,1.88531061101347,1.70470563441317,3.6002,15.7674311934606,11.9350160835317,2.38933201710584,0.815199363445275,1.64522081025739
mp-540967,K4WO5,1.69445809921638,1.67940592770182,1.68616592896429,3.2459,12.153438668127,9.90930691188096,254.736319608377,0.804298475283717,1.24724515506499
mp-29274,P2PdO6,1.6071603995868,1.84142535553304,1.90214692124452,1.7177,9.90060005268045,7.6342505952478,182.509061615714,16.7992379722287,0.065005689573384
mp-560926,Tl2Cr3O12,2.17351920166351,2.14915088814164,2.16653677790154,1.7289,10.4617764380892,6.7769465540818,13.5126830907525,31.295221607203,0.105958307662249
mp-5126,ZnSO4,1.73138472327787,1.71156006321718,1.73081101221364,3.8585,15.7582333714097,12.5615787985891,4.44347215264426,0.471675360992664,2.34515149553006
mp-542196,Cr2(Bi2O5)3,2.2974018999731,2.20751933400367,2.24891864237015,2.3911,10.9482432430388,6.85816852153476,10.57067241598,14.7797371642137,0.162261563123531
mp-3443,Cd(GaO2)2,2.14938516790267,2.14938513766147,2.14938501669664,1.6772,19.5501391531551,12.7326677872159,1.76183606387237,0.194519630007271,5.70845902839501
mp-675802,Y4Zr3O12,2.14578437406931,2.15082590880806,2.1580177501587,4.1215,13.9693672504421,9.09024645634065,8.24078485093882,12.9479735526082,0.198579827765427
mp-541044,CsYO2,2.0413991868324,2.0413991647887,1.99734161074164,3.0986,12.0930315087909,8.2869558072693,2.68923796442296,0.513149188844898,2.32060356191559
mp-7471,Li3AuO3,1.80409340112978,2.22460729792923,2.22460729792923,2.0556,10.7925223169063,7.21655167234505,5.91741772722743,2.62795995367128,0.54951593495831
mp-24920,Li2CrO4,1.7080098448194,1.71040499005353,1.70728893571065,2.637,8.30437066544819,6.68240796337931,16.2787849097209,37.9306118294153,0.087793576477719
mp-27418,KAuO2,2.54123365120172,1.70449646816883,1.89292703504388,1.5047,11.0299683591239,7.49513883605368,2.50977993521094,1.72087309352066,0.979541682945352
mp-764206,NaV3O8,1.83853525122582,2.45659004923491,2.31134073645579,2.1404,10.7350856634858,6.84969422491858,10.2120586103787,121.318610594237,0.106166207377655
mp-7020,LiYO2,1.92533464104295,1.91666343680887,1.943360936625,4.1082,13.3661036941645,9.57646952672086,7.78824513980948,0.500418966581143,2.12672416598616
mp-28481,Ti(ClO4)4,1.56193295950883,1.58341930959553,1.51815192915597,2.9231,10.1586031112935,9.04546843833914,51.8244581370916,1045.02629887079,0.02025282217308
mp-28788,Ba9(AuO6)2,2.24842153521087,2.18262458980009,2.11286123302029,1.8841,11.4922690107178,7.39180375140605,82.585053875935,15.1818462901004,0.077976870075882
mp-552185,AgNO3,1.91069087766703,1.9406765521333,1.68958001586193,2.15,10.2005321349777,7.60681908492595,11.8422636195988,3.5532854971481,0.365872995125593
mp-7914,NaScO2,2.03473034331333,2.04725804186966,1.79994250185943,4.6266,12.5954310616477,8.88990025148538,3.61220773205047,1.36418706501807,1.00987630447319
mp-704459,Na2Cr2O7,1.75702442498674,1.75958476635825,1.70710473609559,2.5629,8.79129399932348,6.94093541998275,30.557290918429,55.1108748346338,0.050870653214064
mp-5909,Zn2GeO4,1.88788225533268,1.9015278777867,1.88379933113907,1.9737,15.6965079319405,11.4501964693375,17.1862374316214,0.282675886970634,3.59580654786166
mp-18815,KVO3,1.70688548532114,1.85347837861681,1.79172171388305,3.0703,10.6293673361823,8.1941812785975,11.0156371875015,13.6581860840281,0.163996205972374
mp-542115,Hg3Se3O10,2.20739953112254,2.06098753999145,2.16698465615241,1.9291,13.1117668316097,8.55390593256432,5.34151649998053,0.957848208578155,1.23121950626469
mp-613172,VBiO4,2.32147227207219,2.45852522663486,2.36746824477119,2.8285,12.1209197830881,7.24830199692784,2.34999802373131,4.21028600074982,0.663045828795448
mp-28855,Cd4OF6,1.74932649039566,1.77299165254662,1.77299165254662,1.9044,15.528840662455,12.0965603640111,18.7687833934277,0.364589759618885,2.79608875554232
mp-19133,YVO4,2.02002524241654,2.1099934502268,2.04585654922333,2.9717,11.9223382541374,8.05882944274956,4.78849571384217,1.27167825955856,0.995196275907656
mp-541037,CsCuO,2.27664313409019,1.79219859669625,1.81875892575129,1.1311,9.03562415526919,6.37184358339148,7.93801275026612,1.76101131017836,0.693831637928947
mp-7210,Cd2B2O5,1.79664611707481,1.8681420368912,1.88098571499095,2.4848,15.7042242652235,11.7014653623511,16.7786757212274,0.443120274726695,2.31632310074663
mp-685194,Li4Ti5O12,2.31389081419154,2.22812139705179,2.18037660508454,2.7032,10.3287778964936,6.49528485148651,7.77412350438073,2.06972418732044,0.611788028882159
mp-3917,Cd2GeO4,2.09382576161437,2.06652103787985,2.01214511156626,1.0893,15.9997167973406,10.8200809936137,5.9742939072969,0.225527934271964,4.60142432187374
mp-19660,Sr2V2O7,1.87361145385056,1.87361145385056,1.89667032454246,3.4545,11.0778102251975,8.11989328746891,69.2619126611413,44.8355007100361,0.036741704023258
mp-554873,Ag2B8O13,1.61443587361035,1.68463173720549,1.70783238931694,3.2782,13.5729779658811,11.1881754446508,37.0158825460911,0.611686611036444,1.66183950858021
mp-781505,Ca3WO6,1.9587510842371,1.95822368742695,1.95765754410724,3.717,13.197333645412,9.3251567776745,5.90701788488822,2.32785056037505,0.598870999894443
mp-18875,MgWO4,1.96436203129668,2.19256258063481,2.03994011676814,3.7568,13.78904951838,9.29309723866641,4.2007491785042,3.21254304833327,0.549332650694375
mp-28382,K4ZnO3,1.79460359132595,1.74288899818663,1.80264830457857,1.6946,11.4771920757105,8.86702681452388,39.5698749595109,0.427529464169108,2.3642918268465
mp-14333,TaAlO4,2.01712381870821,1.95421075117296,1.94996563046634,4.3612,13.9371374846412,9.77806620280599,4.86416576930605,10.6841292704987,0.299181869683796
mp-9755,HfGeO4,2.17730811094801,2.17367384627961,2.13749497777188,4.1327,16.6681374534318,10.7983430987366,13.0075235846168,0.983271801930738,1.09389137583412
mp-5061,Li5ReO6,2.08370763544217,2.13036435850772,2.13549705455194,2.2602,10.8924415365036,7.18807441802455,3.09856941705934,2.0034389816062,0.82187130826534
mp-13900,Sr(CuO)2,2.4604697153186,2.45310657126836,2.42219020722981,1.8083,12.416177124126,7.27108482570335,2.60304215941947,1.88380062735261,0.915007625466455
mp-18229,CaTa2O6,2.10101850063249,2.31983555667207,2.25289197033502,3.4895,13.8273936843012,8.74822398923448,7.43177955607405,3.21286373347005,0.445806079989594
mp-5563,Ag5GeO4,2.88654779797598,3.04208934780029,2.94936061376021,0.7914,13.9538944264575,7.04885728302133,2.7517221271412,0.778209029287922,1.64841058247649
mp-28017,Na8Ti5O14,1.92316865095082,1.89242066148095,1.93542933479887,3.5165,10.6320860857736,7.65917406697519,62.6454422873213,201.03382333238,0.020937140546342
mp-560560,CdSiO3,1.80806582015147,1.84678018724482,1.81663677987648,2.6171,15.4779528896504,11.6812328911877,21.6554118067842,0.386129779703154,2.63598067324659
mp-769271,Sr4Ta2O9,1.94388568079504,1.83169641316458,1.94338465312454,4.2644,13.1754479727757,9.54018041377175,12.6420372406526,1.38329473564417,0.802012911897606
mp-17161,K6CdO4,1.86294780925285,1.86294777704583,1.86722192039404,1.5997,11.7401507218396,8.67821075575907,56.7539727941938,0.397996691792484,2.53020361075429
mp-19365,Ba3V2O8,1.95883159562021,1.957878622387,1.96749223886652,3.917,12.0054881829894,8.47056926273141,4.04252332389541,2.58558534501337,0.634129866565174
mp-558015,K2Cr2O7,1.63458324046223,1.6433053946239,1.70553714412791,2.7085,8.74042231596113,7.24010456373708,226.329919285404,50.4286829457464,0.024248313273802
mp-28808,TlReO4,1.84459136125051,1.83156532507033,1.85686659186922,3.3878,11.8494084637642,8.84837397592793,5.21086895668834,6.6865014898526,0.341461612597735
mp-19330,CaMoO4,1.97799896107152,1.97880334545907,1.98436186972034,3.5047,12.6746812144145,8.86570825603084,5.50761378433366,3.41391664442555,0.47448552697643
mp-5637,SrZnO2,2.08531726602932,2.03910103476998,2.05745675531711,2.0794,15.2350180591383,10.289295569545,13.0137321736124,0.324952262677217,3.15421700150136
mp-769344,Ba4Ta2O9,2.12633261038813,2.14061836393132,2.06831049893385,3.3706,13.1461685278203,8.69216391204071,8.07698642229674,0.930421243382893,1.19859054764377
mp-769349,BaTa6O16,2.5493327068078,2.22135120816137,2.30163396959638,2.9012,13.5741189856737,8.18720107077129,5.95161593293592,2.0631103370488,0.652726645132707
mp-754031,YBrO,2.0051869937739,2.00518725060778,1.89407449959076,4.1767,11.870127950109,8.34922154458825,4.24330960775257,61.4267395811416,0.251944659232765
mp-12233,ZnB4O7,1.61081176119372,1.6512116914557,1.66244978570783,4.6666,15.6922993234947,13.1625487763415,21.412506778906,0.623579748188692,1.65034580370968
mp-14116,CuRhO2,3.55715632071462,3.56637783612449,3.35990859994733,1.0871,10.8823456074496,4.86223492621213,3.29122564521706,0.582531562285252,2.0204833593701
mp-17986,TiTl2O3,2.26800923058086,2.3501674365883,2.26391139844297,2.097,13.2327171207559,8.16128412180647,6.11350077755252,0.494702985758765,2.18498732820042
mp-565784,VOF3,1.54149474536892,1.52884121150628,1.58474674632889,3.6655,8.89780515851881,7.93914740664004,52.6247692019328,125.556462356824,0.026967002883709
mp-510075,Cs7Au5O2,2.04659806019648,2.05482558870577,2.08933367607953,0.8711,8.72887915587338,5.88786205172426,947.465920941614,0.421362467229811,2.37430906530625
mp-30980,NaYO2,1.96552949100236,1.87675995534858,1.9382111520678,4.1331,14.0343196320258,10.0629375297053,4.38374896210197,0.440014892566235,2.50076560310217
mp-28232,MgTi2O5,2.36529812708673,2.27859858465681,2.19502950777433,2.7616,10.994436967758,6.81607991699165,3.70366361948493,19.5624856529934,0.321121170523575
mp-8198,Rb3Cu5O4,2.00707306792752,2.00728583664609,1.95563911803789,1.5386,9.98110169961345,6.95146725554979,13.6723931612587,1.46381830220417,0.756284979903827
mp-543108,VAsO5,2.02566347402524,2.20673291768623,2.07721965858212,2.1549,10.0984099315584,6.70034818417151,6.65788818755906,5.73598463744717,0.324535760563892
mp-14243,Cd3TeO6,2.26560127780684,2.28919766075365,2.28924005512747,0.499,3.6024406871789,2.23198174842793,4.53754881458605,0.173367809958114,5.98846678067592
mp-8979,TaInO4,2.20935464332913,2.25197315703363,2.176626610147,3.6929,16.1276375499167,10.2495362966959,3.48565450829023,1.35257700588704,1.02621960561987
mp-549720,NbI2O,2.57919881552392,2.92982428995324,2.28369464683876,0.8392,8.58764742495,4.79421475714899,11.2261959124641,34.8207859336331,0.117795848101956
mp-687234,P2WO8,1.92049089557852,1.79697487183322,1.7686015916537,2.4644,12.7957510077502,9.63252537259888,267.426015313415,15.1953650226773,0.069548893147011
mp-13603,CdB4O7,1.62930482108168,1.66650518451039,1.68536955591348,3.9877,15.5266532780634,12.8675259042371,9.10593155973186,0.616511085656837,1.73184937751409
mp-4342,KNbO3,2.49407049419217,2.49407049419217,2.13525857450567,2.2695,14.199267664516,8.51437647981637,73.0268409421549,6.99588674875915,0.156634731334287
mp-10547,RbAuO,1.79373666963688,2.01439243693973,1.97830461759558,1.4974,10.5849920146719,7.58259021538752,18.7095081167082,2.16390535198724,0.51557618070034
mp-542069,Cs8Ta6O19,1.75967013670176,1.76034021143641,1.7610454508615,3.4834,11.3275443125494,8.84727241092031,84.01580836804,0.761555482820308,1.3250044856667
mp-4156,Li2ZrO3,2.03952246861857,1.99669736314746,2.13212836152048,3.8035,13.5170349622158,9.14648597914228,2.45951505310812,1.2670422736045,1.19582386572143
mp-540142,Mo2P2O11,1.86670743020967,2.02703198297412,1.9611337409774,1.9934,11.050854736762,7.83225802343447,15.2197799207774,18.8815038814255,0.118665855440009
mp-504949,Ba2WO5,2.13976266908272,2.05632150939487,2.08032363828324,3.1782,13.3140695869743,8.87426507088,8.11209585020282,8.80935418038424,0.236788404444451
mp-27998,KNb3O8,2.15622755756437,2.13576340684075,1.86824590458537,2.5726,11.5620780040704,7.83263613197205,100.379515855215,101.986464697742,0.01976741461449
mp-12286,Sr2Ta2O7,2.15630359179778,2.1348796851345,2.0549636979762,2.9093,14.0347333203125,9.26600353601178,14.0232841145403,1.52301404393155,0.727902735704277
mp-5532,Sr2TiO4,2.25972238339138,2.25873815658212,2.20455937320817,2.0864,11.9756681724216,7.53034855800501,2.07272432331012,717.568844454069,0.483850421376739