MP_id,Formula,Ref_index (1),Ref_index (2),Ref_index (3),GGA direct band gap (eV),Effective_frequency (eV),Average_optical_gap (eV),effective_mass_valence,effective_mass_conduction,effective_mass_transition
mp-28062,Sb2F7,1.5579991078303,1.62392388060525,1.67724066549795,3.9065,12.8457711293303,10.9297366765723,4.45144424541804,4.4017740256345,0.451827322954838
mp-696379,BH3OF4,1.34858234453815,1.33388734906663,1.37684067705744,7.6841,14.9234779037261,15.8740977331253,51.156967073654,0.648385437166661,1.5618401844236
mp-565711,P2O2F3,1.46907205064966,1.46907196556193,1.49549060511927,5.3101,12.443441021017,11.7618264363572,10.9390737581184,3.88662668164354,0.348707944878476
mp-640524,MnNb2O6,2.45595611727897,2.30557868007145,2.35042356821063,2.5805,20.1686953943461,7.67975265682648,10.2575384425895,3.50813268860293,0.382541208189076
mp-772813,Ca2Cu2O5,3.04747761927795,2.01168690903928,2.45763574192759,1.0118,8.55286764467417,4.91233244475142,26.5057120148274,14.4181690705091,0.107084650889598
mp-557626,Gd2TiO5,2.19614648646214,2.14157688865004,2.17397688120182,3.1702,13.4401161377533,6.49425811729767,7.5569251334366,14.6963309991377,0.200373148380239
mp-675993,Zr2N2O,2.81948196482971,2.79386264157707,2.83352287091529,1.6823,13.0465443727802,6.8438189326619,2.80460114111898,0.702019185702107,1.78101943357153
mp-22925,AgI,2.24035782409864,2.2403577325954,2.24035811423085,1.3678,13.8183856392807,8.69115130936401,0.915839707367101,0.200375311816686,6.08252890843289
mp-1500,BaS,2.19244472678332,2.19244464468319,2.19244492747252,2.3171,13.0730543718188,8.37252615317411,0.849866290039459,0.447703839449944,3.41027512492175
mp-770159,Sr7W4O19,2.05650193046347,2.13228563049137,2.10800210626081,3.0934,14.0975109734327,9.37019284759709,12.1964333249009,10.75747034912,0.174949840608751
mp-696762,TlP2H5O8,1.5866375862181,1.60903463293989,1.61503074274145,5.1055,14.6399936737175,12.5924223309892,23.2937950872249,1.26754529106784,0.831856332107905
mp-707218,Ba3AlHO4,1.99005316511896,1.99825713060157,1.96884679952504,4.1258,12.6392817562951,8.81972483550423,8.66076074778833,2.19466656949332,0.571113379028795
mp-707424,Al2H12(SeO5)3,1.57718454849139,1.57732369854764,1.59981552374016,4.7536,13.091533397643,11.4074032744028,20.7412222245469,66.3494015122165,0.063284892476829
mp-2133,ZnO,2.53484032633221,2.53484054528091,2.46055091188945,0.7317,16.5890582367266,9.51443748963104,2.21819134306001,0.157017717650036,6.81952577109483
mp-541415,KH5S2O9,1.43805861841581,1.49612864420143,1.47519056396114,5.4879,13.8771111188709,13.2061687883247,238.559222514687,0.604618613770007,1.65812701818501
mp-758948,Cs2H6CO6,1.55008477832666,1.55505497973544,1.51587275521397,4.092,13.2235367316952,11.8985885878223,84.6408534398556,0.52096809898714,1.93131795408019
mp-730460,Na5H3(CO3)4,1.45389477954906,1.54081248696913,1.55680742868217,4.9055,13.4261127911901,12.2961118795151,176.224943796147,0.827193875380847,1.21458100185856
mp-754153,LiH2BrO,1.70502717866901,1.6787701599683,1.70058218560586,4.3086,13.8211916308063,11.2137747380146,2.5109328950751,0.409097016277702,2.8426663059475
mp-18203,KGe2(PO4)3,1.73275783074266,1.73075705978627,1.74331475643385,3.6645,15.8777726815597,12.576380648136,13.5478744434262,0.570137153109301,1.82777624377828
mp-6194,K4UC3O11,1.60936732600112,1.62188437010781,1.63122364499783,2.0915,8.42013305560396,7.1589585547644,63.8233852792753,51742.835542573,0.01568756449562
mp-2672,K2O2,1.59430138932386,1.59116093466374,1.6041095723173,2.4261,9.94231761110378,8.59305428796007,7.95292422263157,1.21594434436812,0.948145975131657
mp-241,CdF2,1.67432771284477,1.67432788903488,1.67432770388595,3.4682,16.7861908633765,13.7908255307589,3.01983760988405,0.390321068981572,2.89313702723363
mp-2030,RuS2,4.09475303162474,4.09475303162474,4.09475303162474,0.9064,13.353146942681,5.32517539899547,2.78028607835504,0.393751636580619,2.89934720132198
mp-23050,GdClO,2.16066668877918,2.16066668877918,2.07788439043177,3.1233,14.6735348436382,6.31713836160941,7.27818461243815,97.0460987448628,0.14770128078304
mp-571442,YI3,1.97459117794039,1.99472395082628,1.86670454009198,3.1,8.03103816759527,5.70861238720669,3.23570448965379,4.55707029741479,0.528490938906677
mp-1315,MgS,2.32429256979409,2.32429261066674,2.32429239124513,3.6081,17.5547016647205,10.7110587100291,0.975442330510546,0.354505308351363,3.84600816309944
mp-6591,SrLiAlF6,1.41510775914769,1.41510758954929,1.42173177850114,7.3389,13.8271649609184,13.7869153233838,29.9097164912102,0.581477803986795,1.75319005042357
mp-23810,BaAsHO4,1.82571598557936,1.70963291673973,1.70924882623918,3.774,13.3735498436362,10.5169919299547,58.9344362617292,0.475614237477537,2.11951229981275
mp-6669,Sr5P3O12F,1.67671059518332,1.67671059518332,1.63616266000664,5.2359,14.9691995084017,12.3837053781368,18.3321340203633,0.467995340616363,2.19132243333975
mp-24336,MgH4(ClO)2,1.55779132748902,1.58273913201134,1.57323514771314,5.4422,14.092236805068,12.39713932069,7.03909161664105,0.441395084695011,2.40760781754176
mp-24022,RbH3(SeO3)2,1.67464705535226,1.6365401797695,1.62600609469952,4.2376,12.0198167051489,10.0546133289142,232.665192044849,8.76501845138584,0.118387912540463
mp-31358,RbBO2,1.5560740020963,1.5030629827123,1.56806007856842,3.9289,12.9673112645321,11.6500842421005,15.0407134803107,0.558915094622774,1.85566672832945
mp-29104,Ti3Zn2O8,2.32257137242325,2.32257137242325,2.32257137242325,2.5923,11.8058289328803,7.20773272190846,3.8491521220137,0.902832537453695,1.36742259704829
mp-27355,Pb2OF2,2.05253186089766,1.98789364403632,1.98789364403632,3.0118,15.9604974092364,11.0202406063852,7.62343995374667,0.561728541170494,1.91139369594153
mp-554626,Ba(BrO3)2,1.69858801361602,1.700783278375,1.73016598047702,4.1836,11.0542329563359,8.88844436381429,16.7770829234924,8.50333516733656,0.177206033005171
mp-27376,Rb6Si10O23,1.5563346169767,1.56078585654791,1.56165548697528,4.4028,13.9110372098218,12.3408602984361,85.0607000050495,0.4826774214568,2.08353335152751
mp-8789,Ca4As2O,2.78020213473769,2.77975562055372,2.75002026719804,1.4242,10.1116181216488,5.37093629449367,0.803584404863344,0.530182644878405,3.13056681279723
mp-22989,NaIO3,1.82321091209986,1.71227736655017,1.87804990082798,3.9095,11.5640621577222,8.81685380102178,7.06552389016731,1.6603293684274,0.743822456999868
mp-6787,RbLiB4O7,1.54837224529504,1.51145782938195,1.54313982840182,4.8696,14.0224902916136,12.6746634972241,18.9685056848096,0.63599533869007,1.62505753352706
mp-554657,Na2Tl2B10O17,1.68212902893922,1.66580829629342,1.62350244225255,4.1036,14.4457374246951,11.9962946932074,6.86894568643696,10.0751391151749,0.244836962245378
mp-1394,Rb2O,1.87178472052744,1.87178477395239,1.87178465908875,1.8971,10.301625224979,7.58668470380344,4.59096611482459,0.349046526868305,3.08276664959217
mp-6557,Cs2PO3F,1.56463119296529,1.53203306426461,1.55895758120611,4.3991,12.9346376043533,11.5395240216606,29.5743295707159,0.458752840107464,2.21363612504948
mp-5285,SrSO4,1.65560486831853,1.65622695002829,1.6661591940748,5.9823,15.2366135404621,12.6356232968285,12.7746701170127,0.487091956194183,2.1312803470886
mp-19522,P2W2O11,1.9161251890208,1.91266795863788,1.8542992557837,3.219,13.1957148527308,9.61045039233526,16.2519956897803,4.38717945585007,0.289467785470588
mp-886,Ga2O3,2.06521072048351,2.05672861116872,2.03003892573517,2.0348,20.3990863569202,13.8354138803902,4.80091482333723,0.229036829221943,4.57440367679061
mp-560445,SrEr2O4,2.05674510088149,2.00251526086569,2.02828625938254,3.7705,14.2258035319404,9.73802572890364,2.92093542312766,0.904253738798018,1.44824036519782
mp-5427,Mg2P2O7,1.64671797828286,1.6619865733513,1.65560867356994,5.5782,16.3026141769385,13.5587107558687,5.09367654769919,0.470836960792183,2.32019929162375
mp-31352,Er2(SeO3)3,1.87913596634198,1.84354750142219,1.91299111341376,3.9625,12.552019026162,9.21294347245621,4.51331566932738,2.4806199382189,0.624691633555964
mp-19039,CdMoO4,2.21022616037364,2.20849935476558,2.19352833580968,2.5317,14.2249560090417,9.06979080937876,4.68253017863955,1.35269833805256,0.952822880062552
mp-554959,K2Al2Sb2O7,1.81144302698153,1.81144288068931,1.67744477107296,3.6231,12.4122187230611,9.65980518190461,5.93659066305283,0.851275252221594,1.34315502791355
mp-5634,NdOF,1.90126889734198,1.90520752675398,1.83499216892062,4.5359,14.3054350734501,10.4898892903133,213.293193948312,52.4094153334946,0.023768923171964
mp-683980,Ho(IO3)3,2.03373727162581,2.14581520639593,2.10225498929126,3.31,12.5269531440107,8.34342573523302,4.03847841417616,1.77568388063271,0.810781316279341
mp-8313,Cs2Li2GeO4,1.76261316516132,1.75126733824394,1.75634249792004,3.5901,12.6541729801762,9.90343883049566,13.0571306373938,0.418923893101615,2.46365493542319
mp-555078,Ba3SrSb2O9,1.9523824292387,2.00210175066104,1.96933266615877,3.1353,13.6454623439767,9.56978441778543,21.9196638379506,0.450653635031189,2.26462021419416
mp-6978,RbHoO2,1.9539866760037,1.9583565482312,1.86003295669727,3.6763,13.0542816970703,9.37225323485396,2.33405728048358,0.585703256393536,2.13578772342113
mp-27275,Li3BO3,1.57814449908746,1.65609992754061,1.62648352281848,5.1473,14.6047369299307,12.4220334009546,8.11530544129664,0.746698558412217,1.46245246393828
mp-554056,Ca2B5BrO9,1.70103085803874,1.69618989208166,1.69219732300935,5.2791,14.2076375385326,11.5156510453737,9.47311765452748,0.641016476777921,1.66558417091813
mp-559894,Sb2Te2O9,2.05224318734403,2.14795641948341,2.07052609498166,2.6151,12.678499453732,8.45725465306231,115.399213245172,22.8601443753987,0.052409826004631
mp-557264,SiO2,1.45272644362247,1.45733155801966,1.45906161281832,5.4346,13.4200993687014,12.9186629806722,191.98254711278,0.556892390655446,1.80088785860402
mp-17854,LiInGeO4,1.92457135747158,1.92159095283049,1.94927521145681,2.2778,16.9035880023538,12.0917916687538,20.2736432090205,0.320426115916444,3.17016937132258
mp-1858,HfO2,2.21571991235354,2.24183752087434,2.27038130057486,4.4097,15.0165718062796,9.43673521216967,4.98105164114556,1.61655222922047,0.819361306918765
mp-755082,Sr3(AsO4)2,1.82771125181195,1.82777550864432,1.84172655950877,3.9018,14.5080209726658,10.9004632870393,4.46235102352799,0.421223408434863,2.59813421947479
mp-30192,Pr4Se3O4,2.44124417049995,2.3106023240705,3.33960407683306,1.4197,13.8634662752405,7.51639116515346,5.23202798690344,1.79518516631797,0.748176077147885
mp-560085,Bi24Cl10O31,2.44294439969476,2.32522119807987,2.39570678715071,2.1573,12.2568226624964,7.31599164730105,17.7340962491526,2.13473230775892,0.524831361124121
mp-6788,La3Ga5SnO14,2.01311659125844,2.01311654655164,2.03105945260103,3.3895,13.3528986611186,9.18074494907104,5.39314399826106,0.42284189796082,2.5503707270634
mp-561236,Pb13(Cl3O5)2,2.24665792678814,2.26549127563979,2.27567434401322,1.8938,15.5360747691033,9.69163051932605,11.3724820111996,0.435755683269243,2.3827954829827
mp-15385,Na2UP2O9,1.79320663616885,1.67142466776101,1.80867607381753,2.1753,8.33053334920083,6.51590189257503,13.6644931306459,778.40983520439,0.074467040879004
mp-9759,BaPr2PdO5,2.4771081203694,2.34728509133424,2.34728509133424,2.3048,12.8627981773041,7.67093818192642,4.20124318735551,4.23889605244108,0.473935262909391
mp-22457,K3Na(SO4)2,1.52542976239485,1.52542971650614,1.51139627497225,5.3971,14.0329285700121,12.8162603104685,8.26416322764003,0.529948642108612,2.0079796902539
mp-560387,Cs2Al2P2O9,1.56574373382109,1.56590052366043,1.5610804175314,5.0262,13.4951037905032,11.9316789960351,24.9916830231024,0.471597556628988,2.1604653494436
mp-27295,Mg14Ge5O24,1.80075353671734,1.79664541855092,1.82203842714691,3.4455,16.4459895458233,12.5258832762043,23.7327685469493,0.386501315894371,2.62944914690164
mp-11625,KCa(PO3)3,1.53891108255156,1.53891089410661,1.53347619479404,5.1821,13.7527173698963,12.4048391648434,10.2768445655877,0.572606268021494,1.84370685478347
mp-557992,InTeClO3,2.00284062271565,2.21387880878787,1.93404689705291,3.138,14.2487836230683,9.66571697475592,14.3265769289756,1.48923228316238,0.741287264822027
mp-17774,K2Li3GaO4,1.73381140842942,1.74123405951067,1.73538858760797,3.4186,14.5302178064866,11.5010740786303,7.49858684698604,0.468096870247121,2.26966840764178
mp-566661,CrHg3(PbO4)2,2.42691951658888,2.16877895369722,2.26871600250009,1.9166,13.2727437230145,8.20332418812733,15.2031241964964,3.08304321751122,0.390130797540716
mp-18510,Sr2SiO4,1.79458552317798,1.81422062881007,1.78637547844791,4.4878,14.8697653961463,11.3744071569735,10.4103932840414,0.415882303792563,2.50058430140158
mp-27184,B10(Pb2O7)3,1.98843184947335,1.96814567804317,1.90191681468985,3.7054,16.3927386652691,11.6118103870657,14.8789595942189,11.4031959098277,0.154903713960691
mp-510303,Y2MoO6,2.17676128456935,2.15119721550582,2.18248287736697,1.9929,11.9178367140979,7.69881944840175,89.5873741994752,46.8475777449352,0.032508108008139
mp-548479,Cs2U2O7,2.01762881620976,1.82959249561207,2.14190810493821,1.4977,7.51527683991285,5.21921317806203,4.37469862768714,20036.4237164388,0.228637083928087
mp-14383,KGePO5,1.71812707911842,1.74452112913544,1.714117790585,3.2292,15.632002212919,12.4536791568237,61.7741130858691,0.481193454887497,2.09435426548754
mp-18495,SrLi(B3O5)3,1.55989407973747,1.55646852521983,1.56612300602475,5.6482,14.6462982788775,12.9814839155319,15.8813216473022,0.62729488483564,1.65711363909554
mp-552292,SmBi2IO4,2.64044627288646,2.64044163919599,2.40455127830537,1.7225,13.5942036123505,7.6722081920609,5.04774951953181,0.324949292217915,3.27551131232221
mp-559550,SiO2,1.41461985352956,1.40927108463915,1.415775812055,5.7364,12.9409633785669,12.953076641087,9.51667503050268,0.614192294089293,1.73323330225674
mp-9793,Ba3BAsO3,2.30709219798429,2.30709227600458,2.29542044079075,1.773,10.8526576380521,6.67145460551914,3.51461343329031,1.29877941006852,1.05448000304515
mp-12671,Er2SO2,2.26261996809009,2.26262014266646,2.24795953032967,3.2556,14.4279244409382,9.01645551077913,2.58279492388596,0.693432536750189,1.82927882216605
mp-561058,Na3Ga(PO4)2,1.59521597597316,1.5921015231448,1.60811673394689,4.087,14.8029650671489,12.7769230610463,65.8822896534885,0.528481806022594,1.90739131425086
mp-9774,Ba4Sb2O,3.40985767298285,3.40507812538861,3.02676702770464,0.6382,6.92369520163961,3.23958841127822,2.30451548305213,0.404544256103734,2.90584812801112
mp-556814,LiNdGeO4,1.98658001600741,1.98223091490371,1.99228191529211,4.0585,15.7328103529587,10.9719244887697,12.3477737911833,0.488046893159272,2.12996969433479
mp-1767,Tm2O3,1.990517917528,1.99051779946827,1.99051803809963,3.9926,13.7454420112568,9.57096647315869,4.06915152033251,0.452414626653063,2.45611325909782
mp-510302,Tm2MoO6,2.19598522308325,2.16595162457521,2.19838932175354,1.8551,11.9050083587343,7.64110866497605,101.985332709892,43.4424001461447,0.032824317527777
mp-30274,AcBrO,2.09499723388839,2.09499723388839,2.05315466051635,4.241,13.5610515606352,9.08054490984699,1.49176743921094,0.581998494347128,2.38856327839798
mp-6989,BaSeO3,1.85303846695097,1.83840481940186,1.75684293834139,3.9034,12.4521375327465,9.43585248040106,3.85581817899878,1.62248093601738,0.875688390141097
mp-19135,Ni(PO3)2,1.67624533108969,1.6917962702406,1.68845728699307,0.9936,15.9109432143383,6.0568475169357,31.3986505316612,22.5944206450996,0.076107216442719
mp-22170,Li4PbO4,1.99276955767595,1.98459281969879,2.01025319549553,1.4436,11.5833471521297,8.04621885821191,4.55820899075546,0.526935585118048,2.11714958165977
mp-31250,BiBO3,2.13175683416285,2.09988438967482,2.1476442978296,3.0504,14.305209874745,9.40250389878682,1.62547434487486,1.47376489035756,1.29373931507901
mp-6299,K2Mg2(SO4)3,1.55170431783894,1.55170431783894,1.55170431783894,5.5626,14.6388831856986,13.0615795997368,26.7895073677937,0.49806220479734,2.04510938545824
mp-580127,Bi2Mo2O9,2.30832756341036,2.31074804338335,2.27112808973867,2.8355,12.7362837799022,7.84749481488466,9.46838411706605,4.16295610729443,0.345828560844047
mp-556525,BaNd2PtO5,2.44747299270084,2.34936598042961,2.34936598042961,2.6377,13.8508957552678,8.28400905321487,3.72436433421594,1.22541413698978,1.08455284288851
mp-4202,BaAl2O4,1.73301543559196,1.73301557407889,1.73146972251899,4.1417,13.1582843290504,10.4410282825618,21.0904263779004,0.433059986744988,2.35656379671253
mp-27197,Na4As2O7,1.5910962730143,1.59934046719265,1.61760503832054,3.2415,12.4553161875717,10.7197682562893,25.0379245348544,0.509160542432249,2.00395648912084
mp-566047,K2Mo(SO5)2,1.69091807016189,1.58709319512119,1.55921418349116,2.8834,11.0417667846532,9.44085097672336,245.553982652871,124.030852381174,0.012134934375621
mp-9157,K3AlO3,1.64619304153553,1.65416630361037,1.65081024348651,2.9359,12.4171852331342,10.3560781225853,24.7197838146348,0.44568640059153,2.28418354578673
mp-3056,NaTlO2,2.46730378551163,2.48991897860151,2.06748336148081,0.7052,9.03214204312046,5.47775983221999,4.77276588950343,0.243733248463478,4.3123681818451
mp-558480,K2P2O5F2,1.46445852450658,1.43655107114227,1.45050719750024,5.0952,13.6657066479928,13.2224965876821,53.9441685593592,0.584446892811963,1.72955713304882
mp-5380,Ca4P2O,2.68421151551065,2.68356348723111,2.64266169420151,1.4871,10.2960878165583,5.62591327683845,0.994401803203939,0.541502601584313,2.85234290901155
mp-28708,In3(PO4)2,2.00600101196385,2.00600106679932,2.00600105682923,3.0693,17.4850443174748,12.0912411899811,4.28699558416417,1.88053851461808,0.765026168048087
mp-554094,CaMg2(SO4)3,1.5769187328458,1.57691856796729,1.58395062107378,5.8268,14.1315296783493,12.3613379291796,41.1720079535776,0.65254713851659,1.5567446872758
mp-7478,RbTmO2,1.94561686104947,1.94949976147729,1.86137758394153,3.6842,13.2717999622951,9.55245236748617,2.24545205091262,0.566647904367337,2.21010893789465
mp-6455,NaNd(SO4)2,1.7073324251592,1.65640270767709,1.65148337260779,5.6591,14.4299315129281,11.8740608462442,37.3145924513845,2.49203383475488,0.428077827992265
mp-15225,Nd2Si2O7,1.88731494721999,1.88731494721999,1.90209398295668,4.8513,14.79885690119,10.7891995080456,30.5587816544654,0.57683284484052,1.76632829071951
mp-18651,Sr3DyRhO6,2.20256904318571,2.2078248820955,2.19782613279577,2.1978,12.6306652665438,8.05740282311757,5.56264255861093,6.30413833791809,0.338396634305845
mp-558669,SrAl2B2O7,1.59034329312888,1.59146687367347,1.51721904153619,4.686,13.5939592408782,12.0009196819547,15.8395790283382,0.557666985428556,1.8563178596059
mp-1968,La2O3,2.18476346774657,2.18476323888883,2.16612114158004,3.9799,11.166314719532,7.18981360843158,3.71658429716541,2.18844836455234,0.726009013210383
mp-560647,Ca2GeO4,1.80722420855853,1.77692123348223,1.75286587621529,3.7042,14.0502729934334,10.8611346228995,15.276877093306,0.464875547043769,2.21657176451852
mp-667379,Ba7Al64O103,1.75710416025915,1.75710406350905,1.75663747825213,4.2587,15.7291430838334,12.3085450051975,103.291645096577,1.21084957603059,0.835547741407173
mp-6578,Ba3B(PO4)3,1.66358605428153,1.6676563794739,1.65417131216812,5.0236,14.0011236781753,11.5929575591218,48.0495158348055,0.533739190113825,1.8943861089621
mp-17363,BaHo2O4,2.09711654182594,2.06415781615651,2.06921957027281,3.2309,13.7506217629338,9.2237009939101,3.2218767420375,0.819216912874746,1.53105602907535
mp-555933,Na2P2PbO7,1.75748107528929,1.76011624047959,1.695601621844,4.2924,15.3193910273112,12.1193149835735,9.00422178029463,1.70639935590202,0.69708830304884
mp-17832,RbBaPO4,1.70296386045036,1.69363846496234,1.7004306307521,4.9959,14.1125460467545,11.4211320866138,7.02700808413425,0.442522761877469,2.40207884061902
mp-14328,Pr3GePO9,1.93353205559153,1.95030932931164,1.9386714600468,4.6486,14.851984232529,10.5792750184524,11.6581204111457,0.598453636574484,1.75675034034598
mp-18469,SrMgP2O7,1.62993249553471,1.63094493162706,1.62265897218115,5.366,15.1322772053953,12.8061944952961,23.0078058049308,0.486762080839819,2.09785525375241
mp-16990,Ba10P6SO24,1.76460854582539,1.76460850048956,1.75004194806867,3.188,13.2946165217149,10.387114906496,17.5725714444148,1.20495375509503,0.886814236248949
mp-504559,Pr2W2O9,2.26061342559934,2.21318551188101,2.17108783332227,3.5122,14.2683587233619,9.05999165516995,11.8102379007918,9.5429256985963,0.189461965794875