MP_id,Formula,Ref_index (1),Ref_index (2),Ref_index (3),GGA direct band gap (eV),Effective_frequency (eV),Average_optical_gap (eV),effective_mass_valence,effective_mass_conduction,effective_mass_transition
mp-28653,NdTa3O9,2.29258056128896,2.39019305914815,2.24275524522851,3.3603,13.8434904372946,8.49393951770167,10.5605637298517,1.24038656095547,0.90089220055484
mp-560530,Nb2Cd2O7,2.55104850404691,2.47994767081888,2.52098685240522,2.4013,14.1743521087318,8.1109641300445,2.54486366220671,0.369805883947556,3.09706974650642
mp-30120,K3BiO4,1.81077776935769,1.85341779154081,1.78815245994294,1.1746,9.61639684458062,7.28182195719372,48.5158752643282,0.710054483154302,1.42895444240583
mp-3963,K2CO3,1.55160983175539,1.4413339515879,1.54821682912956,3.6392,12.7014987622012,11.6638101690052,41.8129413224668,0.629029415903355,1.61366681327203
mp-18960,ErVO4,2.02833476280421,2.11465179403135,2.05551706876883,2.9676,11.7172364399094,7.89498579544011,4.60129820735842,1.28456674460703,0.995802559156506
mp-17213,Cs4SnO4,1.78935140204489,1.81574339596761,1.8023024108068,2.3923,10.762608124618,8.21476714986678,34.1724113203524,0.388948082995961,2.60030059751479
mp-29888,Er(ClO4)3,1.60712753694285,1.60712758360996,1.67074671928452,5.0591,13.1375965650113,11.1145589060065,28.3009351306562,2.17400198146913,0.495315702961194
mp-28381,Cs3InO3,1.8850976473382,1.87747244986444,1.88370147050959,2.1186,11.4660319426803,8.40116580966119,21.1197205251302,0.4003703626476,2.54503648613317
mp-8809,BaLa2PtO5,2.47170502083076,2.35787752438501,2.35787752438501,2.6751,11.319341561774,6.73849848977428,3.27562425513074,1.00105522428007,1.30423120837192
mp-5586,NaErO2,1.95109619957602,1.86412105293621,1.92270809016866,4.0544,14.1853541217777,10.2402613623293,4.24426379063812,0.404032068005499,2.71066318693916
mp-4709,PrNbO4,2.19467649552275,2.15945382909661,2.13780416783203,3.7547,13.6949903481794,8.86820302106102,7.07904909912213,4.07348759320805,0.386751795264764
mp-556908,Nd5As4(ClO4)3,2.08338516362194,2.061173990715,2.06349086016876,3.7825,13.5614717115387,9.12538911416443,12.4240087956952,2.77823852189649,0.440429615884176
mp-27231,Li2TeO3,1.77413469612654,1.75841875843043,1.70661811486929,3.8743,11.2911827182269,8.88853047802948,5.41467409181624,7.02864729668385,0.326958209231629
mp-3164,BaSO4,1.66344709864787,1.66354234391554,1.67774018250741,6.0063,14.3257118692656,11.8139797819293,16.048490790342,0.499473105787043,2.06442095531219
mp-31068,P2Pb4O9,2.05978784344408,2.05188763824923,1.98481627109413,3.3293,16.18201430685,11.0628102829207,10.3485800582069,3.38136044925049,0.392370567917834
mp-19023,YbCrO4,1.90461770967299,1.96082807507441,1.92177061326268,2.3211,9.99159577040829,7.15662654997094,5.61951321338078,1.40937007959106,0.887488201849455
mp-19534,Tb2(MoO4)3,1.82842305006254,1.82269657924735,1.88151910168353,3.5796,11.3797542604876,8.49822423407891,63.0911035568207,2.20429347305125,0.469510196410534
mp-5767,DyPO4,1.79290873164252,1.84011295577201,1.80683810287474,5.887,15.6914592694404,11.9081456101149,4.48054772716777,0.498817750438289,2.22792720521472
mp-2973,Pr3Sb5O12,2.19416189466502,2.19416193796174,2.1941617716112,3.1727,13.4524823040367,8.60985272579621,5.63810488597758,3.53790533640421,0.460017686560469
mp-25168,CaV4(AgO6)2,2.21296498616675,2.21318698035209,2.21318698035209,1.8037,10.1225078280951,6.4319951096188,4.40853389520818,6.45059708172066,0.381857189142204
mp-565650,Ba2V3BiO11,2.03206558949262,2.02569697388331,2.04690133372373,3.0481,11.3661295931568,7.76129045673828,20.5543442826351,14.7043047944914,0.116658810939203
mp-19363,HgMoO4,2.22607370497924,2.20943364688782,2.41326998903977,2.4524,13.190284734456,8.16770364842166,3.01623485469118,1.47125041643032,1.01123311517124
mp-560587,Rb2Sb8O13,2.03315352838884,2.0236667413386,2.0681107368804,2.339,11.7427723446224,7.99517799748774,416.994380661422,1.45254683091771,0.69084407560221
mp-505284,Pb3(BrO)2,2.31546256717745,2.24365775242126,2.27669892607696,2.4374,15.0036292246691,9.30509765567569,5.96696381258483,1.25134555628946,0.966729189208917
mp-558137,AlBPbO4,1.97690172492211,2.03048842153803,2.05619792092104,2.7567,16.7436044046511,11.5014593347698,1.76983677288622,0.783714369459928,1.84099893045989
mp-555104,Na2Er2B2O7,1.81301965240314,1.79688932324726,1.78883796639047,4.3708,14.5084347591627,11.0909416625067,8.69077587940076,0.54421590870881,1.95257052968473
mp-11982,Sr2CaTeO6,1.92283555459119,1.92023776392404,1.91154567562483,3.2855,14.4119346357557,10.3761647226355,10.0504408824422,0.553834037237161,1.90509317962805
mp-8514,BaNd2PdO5,2.47871532250075,2.3370251517688,2.3370251517688,2.2812,12.8345077185826,7.67042553340221,3.95356174689285,4.28939750349,0.486069456873288
mp-17777,Sr5As3O12F,1.77026178572549,1.77026188175648,1.72646205286997,3.9254,14.0809087601704,11.0267161954167,19.8326443641279,0.490053040802586,2.09101735876417
mp-551250,ErBi2IO4,2.60680888252284,2.60676297541606,2.41296137349938,1.831,13.27482274826,7.5374967371176,9.11767334126164,0.295094659258589,3.49842023570082
mp-18258,Tb2BaO4,2.11166966640145,2.07355790128947,2.08291870220611,3.2026,13.7946331409292,9.20505109227147,3.26521021210759,0.825473622295443,1.51768474318907
mp-554142,Ge(TeO3)2,2.06365772355786,1.94226301257065,1.98985447206573,3.8567,13.4322028724091,9.31920374318525,6.33851550114678,3.12690073276769,0.477571130424991
mp-17065,Ho2SiO5,1.93419241803912,1.92654056017516,1.91483479705169,4.8796,15.0345862495603,10.7885554210762,39.4420338463409,0.518064673740255,1.95561459419118
mp-6280,Al2Si(O2F)2,1.63874141035125,1.64883200781644,1.64209177575433,5.6953,17.1967863045929,14.4084034140261,4.30355367345086,0.447821697555083,2.46539769986117
mp-375,UO3,2.57950736963475,2.57950736963475,2.57950736963475,1.7987,8.53175629912566,4.78913194722237,0.92728128755438,15.5681591079666,1.14265508725533
mp-27135,Bi(PO3)3,1.78471440292278,1.75352981725433,1.79095482075903,4.5406,14.6114531861013,11.3110858787544,7.28898503610214,5.50367693230815,0.318890023787852
mp-29983,Cs6Cl4O,1.63904912983107,1.63901738550877,1.6390822371071,1.984,9.54503638694578,8.01893856207864,34.744284227591,0.413843925054663,2.44515160332781
mp-557940,KNd(CO3)2,1.7111817933814,1.64316624539333,1.69852329686702,4.5673,13.7253646110783,11.2072887912627,83.2264920524586,3.06556695795583,0.338219338364712
mp-30990,K6Si2O7,1.58876116203789,1.59114653944883,1.59224950934205,3.5066,12.7759293666438,11.0864388088596,26.5013736319806,0.475742414975616,2.13971170405019
mp-10791,ErBO3,1.93561416609819,1.96098918915939,1.9407763240518,5.1529,15.9284258122082,11.3198334630237,20.4196248744601,3.0843459684705,0.373190340107685
mp-505127,MoAs2O7,1.94407621764169,1.77375428681653,1.92180325736013,2.8405,11.1850342465131,8.204242439448,15.8367511919283,94.1899836024422,0.073761104269683
mp-28904,Na2Te4O9,2.16222142483142,1.88342504761936,1.97911028242491,0.457100000000001,0.902174234681704,0.623250453047328,0.01787237113767,0.017658928425062,112.580862479375
mp-556797,K2Si3SnO9,1.6110165889897,1.61219062458507,1.60935313091938,3.9237,14.4609435629676,12.3772298589063,11.5327391741649,0.529151955497462,1.97652598692806
mp-13194,PrSbO4,2.15292771128062,2.1053256588946,2.14071428032795,2.242,14.0069241473166,9.1822240301169,5.99703524963174,0.578126872039648,1.89647319022782
mp-22328,K4PbO4,1.75993475163143,1.75810317103406,1.76119510560301,1.6961,10.5149405497441,8.21538737046221,27.0248121813125,0.581616726774641,1.7563483571629
mp-566728,Nd2Te2W2O13,2.14577168869384,2.1949513365904,2.12472100521457,3.4845,13.8345661517111,8.98972528678483,5.39354312882858,7.91437223503637,0.311759288621899
mp-8248,Rb2TeO3,1.66099953943401,1.65738536556831,1.61737809432427,3.706,10.7372517133217,8.98449517276674,11.1282303936844,1.67070721294889,0.688410468359356
mp-18610,Sm2SiSeO4,2.28716913016943,2.3057296914426,2.28986376450653,2.6092,15.1486328389656,9.34217238056147,59.5414532187586,1.17384736190105,0.868694538178016
mp-5158,KNO3,1.48911390430685,1.32046260833088,1.48909173659651,2.9193,10.2821396154132,10.1061029388993,35.3120574015153,2.58049850250699,0.415840961998156
mp-541240,Sb3O2F5,1.74421105087658,1.7948146895989,1.81644464545441,3.7777,12.3509846822128,9.5155282293336,30.1010460552439,14.709623937185,0.101204140143844
mp-13875,Al8(Pb3O7)3,2.08989519593687,2.08989519593687,2.08989519593687,2.8805,15.2013826492504,10.1416105413689,8.76933562535892,3.67347028732507,0.386255879746044
mp-16033,Sm2TeO2,2.69768802310423,2.69356004945128,2.48209055636574,2.16,13.8656103743028,7.67874055847623,1.25738983182077,13.3698996468924,0.870093180462773
mp-30993,LaIO,2.18637326639346,2.18637326639346,1.97314024843649,3.2887,9.0041750920465,5.94494054744259,1.27011296956293,15.9392900403636,0.850069591299859
mp-3273,Si5P6O25,1.59202650731701,1.59475533233158,1.57465060886534,5.5931,15.4655552080599,13.4537615863189,8.39658217183119,0.557492104767183,1.91284345325247
mp-555914,K2CaP2O7,1.58808555814855,1.58932297850374,1.58344564794628,4.8824,14.2332885286459,12.3834536750603,7.35505360304951,0.526575866711885,2.03502252466449
mp-21532,La2Ge2O7,1.97910418876824,1.96674577665747,1.96374482812814,3.6762,11.6958983663758,8.22023564942113,210.893523190468,0.586169661867992,1.71073244335116
mp-28202,K3NO4,1.58715161846624,1.58995321000336,1.59366649271421,3.6478,12.6022375992866,10.939218502502,49.7491722054969,0.549960569562195,1.83841301305423
mp-557650,Sr3P6(N4O3)2,1.95020913237529,1.9502092631305,1.85183133681229,4.507,15.8905427798663,11.4450331579992,121.844378194669,0.63518510771589,1.58255140564548
mp-561397,SO3,1.59250270329441,1.47170922739514,1.46367080315213,5.1816,12.6055536623709,11.6159608403521,13.0948944944747,1.07882085623233,1.00330359667893
mp-6755,KSn4(PO4)3,1.81651558484919,1.81788717471685,1.81075016774816,3.7554,14.3834428116209,10.9053390512815,5.2120488054445,1.97620187825121,0.697884307261108
mp-566057,UV2PbO9,2.25036984071508,2.11669160011561,2.14447325467118,2.1609,10.4162366800282,6.7278426013879,7.03770500802717,116.110043147077,0.150704294902325
mp-17914,CaGa4O7,1.85717038798275,1.82776405479482,1.81998839282013,2.5344,17.333346351032,13.0059378700931,36.9298944594335,0.369916545158595,2.73039077817147
mp-3808,K2UO4,2.0318234249068,2.02686973434407,1.81383140065443,2.0424,8.36471551302577,5.91237117889785,18.0473255716325,6708.56036351354,0.05555893528563
mp-5280,In2Ge2O7,1.95798060255969,2.00657880233994,1.98952712723401,1.7949,17.0069666228094,11.8729743421075,6.67823567852875,0.238865684432032,4.33619331065402
mp-555366,LiHo(PO3)4,1.64517488432081,1.6388635086547,1.64999608181353,5.9487,14.856506348369,12.4359251050351,28.4034443450716,0.547330537560139,1.86225652514455
mp-7064,Er2Si2O7,1.75502819920365,1.8134545624305,1.80720837758129,4.7942,14.6758861048741,11.2654434503018,5.07306657816629,0.49543664597549,2.21554097568295
mp-9127,Ba(SbO3)2,1.90495015157878,1.90494998097063,1.74925755107703,3.0411,12.9959668878326,9.66154857081664,5.21512606897262,0.46476604393962,2.3433701006457
mp-29892,LiSb3O8,2.09392623795586,2.10082363372083,2.14373766352136,0.974399999999999,13.3988704079369,8.85537429236882,1.87094969587112,0.325748419633091,3.6043416406922
mp-6441,K2PO3F,1.49198929285702,1.46224125574407,1.48696418921237,4.4626,13.4760462451335,12.711248715979,38.8377455879475,0.545799384017416,1.85792317234478
mp-28931,Ga2TeO6,2.13517021803883,2.13517021803883,2.19271584570368,0.7341,17.0075998036067,11.0550371670608,1.61828629775448,0.223857311140838,5.08506892436542
mp-12645,LiHoO2,1.92122611891469,1.91206653911416,1.93858153555635,4.0322,14.0354942123467,10.0775101151789,9.32781981882796,0.470174780833095,2.23407483452687
mp-557467,Li4Ca(BO3)2,1.58126333986468,1.68779030984302,1.66777902013426,4.7413,13.8959884151538,11.6249342284308,19.2981932430821,0.656846705365409,1.57424355778375
mp-8299,Sr4As2O,2.75504812480653,2.75461995926843,2.72668714193616,1.2501,10.40649648011,5.5654530626691,1.1169662202703,0.459933441367781,3.06950986067318
mp-17349,Na3In2(PO4)3,1.7112422125462,1.69814348039263,1.70245283635113,3.2432,15.6069131727844,12.593250684532,12.2725184315312,0.46793521400084,2.21853083981964
mp-560632,NaGaSiO4,1.64785002351549,1.64785001744698,1.6239588295274,3.8215,15.5604058152927,13.0654661938508,57.161684388564,0.462960740986961,2.17750460295608
mp-30298,KAsO2,1.84595177618485,1.63728353378393,1.76875304664049,3.8936,12.1630146140814,9.55169579784607,12.5648135947488,3.12128355356805,0.399968349953938
mp-557482,Ca5As3O12F,1.76129829955065,1.77553743413086,1.77567968958368,3.9967,14.0525928169423,10.9118469252651,24.9132312351512,0.521922079725083,1.9561341312531
mp-559186,BaBiBO4,2.16484926034124,1.90928161359188,1.91892360452416,3.601,13.0143421852137,9.03293966107088,6.53642548906461,1.24585170589928,0.955652564777323
mp-505734,Cs2SiO3,1.67000456286802,1.6618045733479,1.66344586927258,3.4156,11.568891031006,9.55936381633275,77.7656251448494,0.447964701813874,2.24517789493838
mp-19121,TbVO4,2.02203482660413,2.11111930264493,2.04930673887537,2.9845,11.6108879667424,7.84101380060359,4.67274103666522,1.25382373038765,1.01156742735435
mp-556234,Rb3Sb5O14,1.94418945836048,1.91243193081479,1.97126634932979,1.2379,12.762639542682,9.08339815560101,46.599955428592,0.342741729876398,2.93910805708488
mp-19037,K2W2O7,2.20717128016835,2.08054430378207,1.79846366935782,2.9468,13.5103437963271,9.25009985877952,520.129489946574,6305.47279469761,0.002081190549266
mp-555457,Te2S(O2F3)2,1.59626070552401,1.69666916928434,1.69565294798199,4.0355,12.7659811885946,10.5632419651018,6.2319399054173,5.41046151558332,0.345290794614216
mp-562338,USeO6,1.87532858720812,2.04965238760137,2.02637808170144,2.0194,7.46773125696177,5.21553873246539,10.9513672192364,15.0600703073698,0.157713552004582
mp-22450,Li2PbO3,2.35156763032663,2.31880748015009,2.38629124584574,1.1133,14.2171606797768,8.59051625872069,2.58341210808102,0.367587041563339,3.10752907483352
mp-3642,ScCuO2,2.47983812778173,2.47983760557017,2.3298996008412,2.3309,11.1356921535946,6.55431740872576,4.61912719872912,1.30195143804633,0.984568918410824
mp-17250,K3SbO3,1.72988997627017,1.72988997627017,1.72988997627017,3.2446,11.3446454983167,9.01550547941526,24.4753906530519,1.87755167327512,0.573465876701184
mp-5965,Tb3Ga5O12,2.03900506865481,2.03900518881145,2.0390050490374,3.2791,18.0734651140528,12.3194614247357,6.28507006596392,0.312946321162025,3.35454340537241
mp-13695,SmCuO2,2.24258339644259,2.24888095949963,2.14906421728156,2.6359,11.7884391991802,7.48942910867529,3.14961912972608,0.699058977510171,1.74799317441758
mp-3556,Tm2SO2,2.25816249193897,2.2581627177863,2.24380506283411,3.2089,14.3729385349,8.99649969294221,2.71392025066397,0.686536296342507,1.82505789199602
mp-6265,TbBa2SbO6,2.06944731510614,2.06944704450247,2.06944735617991,3.5073,14.5583598543971,9.79578560562432,2.29101659127889,0.399495440863758,2.93964493187362
mp-27811,Li2Te2O5,1.96081957609567,2.06622514020133,1.93409536734878,3.4847,12.4124318063576,8.65626025896306,14.4160352716668,4.64951758902706,0.284443276225255
mp-19014,Sr2CdWO6,2.12769411100374,2.13932650149527,2.12032442328998,3.5068,14.602188542287,9.58733823292211,4.66176594459089,1.21782255350764,1.03564867531005
mp-16165,Ho3Si3O10F,1.80239185251155,1.81740112248232,1.77951859220408,5.1243,14.9342217515077,11.4152822043449,30.3843073811317,0.474949523250396,2.1383986273625
mp-5488,LiInO2,2.10348923933544,2.10349284762273,2.10352495587763,2.3449,18.6140001056783,12.3489850678788,6.66930911137701,0.287868240618706,3.62375205206386
mp-23623,B5Pb2BrO9,1.90375294615662,1.99185105868888,2.01820056733715,3.4365,16.5195972462492,11.6030576065342,7.4773661297229,5.20939926484079,0.325697644788311
mp-9160,La4Au2O9,2.14587578391667,2.35501228022276,2.37748653623948,1.9706,10.7830664847644,6.65341640051559,8.0058952943419,3.0978157514278,0.447716048410515
mp-8176,RbTlO2,2.41546801676197,2.43097763667213,2.07348656856031,0.97,14.0645985463203,8.63533299146723,2.766170052369,0.30066725269662,3.68744654173383
mp-559313,SiO2,1.42767533073875,1.42782590325291,1.4295453647926,5.3664,13.0161023173468,12.8462998105424,3.07433707726627,0.593024470202511,2.01154443264331
mp-31630,Ba2TaCrO6,2.2578699431101,2.25786968180185,2.28451101989025,1.6599,18.5992263422671,7.34326461303909,16.0932275136029,0.60295781686022,1.72062875283287
mp-554022,Sn2P2O7,1.84615817036353,1.84696659417543,1.84282549906387,3.5666,15.0100991158059,11.2029791395621,5.15688797163422,0.973484805223864,1.22115280094251
mp-558628,KLi2BO3,1.607404432618,1.56687496629438,1.55810591745234,4.0036,13.0649312541248,11.4428789801646,43.6943604150078,0.597782394355679,1.69573578299948
mp-549737,Ba2Ca(BO3)2,1.85776175544659,1.86053067698439,1.79687189860602,4.091,13.9944038883864,10.4821114725147,13.8644760592129,0.86487553774033,1.2283625104102
mp-622861,CsDy(MoO4)2,1.90277382260741,1.9193365859067,1.84811151719803,3.6112,11.9504326687861,8.72178296266318,18.7757229693022,11.7146959727486,0.138623130091508
mp-17960,BaSm2O4,2.13444087292199,2.08871175847698,2.10444923198446,3.1428,13.4162878142144,8.87999558412256,3.85133492967471,0.837320970742905,1.45393537855919
mp-22987,BiIO,2.83527994385034,2.83527994385034,2.24879432807894,1.8271,11.8737158089771,6.5458462981445,5.96581697626399,8.60708259075886,0.283805021844415
mp-1045,Nd2O3,2.06204887429954,2.06204887914909,2.06204872638839,3.7535,13.2505344463141,8.94364454679819,6.81441243153137,0.529352071891822,2.03584968618362
mp-8314,Cs2NaAsO4,1.67621180940835,1.6846026534468,1.69648101374581,3.5364,12.2526173698278,9.99572702383614,19.0317904018602,0.433327175005855,2.36026876797502
mp-14152,SmNbO4,2.24986325806703,2.17170556936248,2.16706049292584,3.6075,13.6062812107591,8.7014554709756,5.42527535779262,2.58655172516513,0.570937559375315
mp-553308,CsNdO2,2.06822590884071,2.06822581213948,1.98971443428448,2.9505,11.6384578117033,7.92275325085608,3.53332342837187,0.539842750430986,2.13541093488398
mp-553242,NdBi2BrO4,2.50779754964391,2.50778506455398,2.29176126156282,1.6202,13.4040421086326,7.87404422847736,1.15936943622234,0.355092630848935,3.67870441255487
mp-7566,InPO4,1.79760917331883,1.78945349478549,1.7955572477646,2.539,16.5883254017971,12.717601184548,1.94061276241407,0.374844839641782,3.18307164202389
mp-6160,Rb2PO3F,1.50981651865384,1.48155243241675,1.50112874198051,4.313,13.1136640792289,12.198079576197,22.2686028051565,0.495902444509719,2.06143192644487
mp-17708,Ge3Sb2O9,1.92356175882138,1.92356174582466,1.84549797073852,3.2786,14.0368319224725,10.2072302523156,2.42762608592932,0.999837566347177,1.41208751134853
mp-19707,V2Zn2O7,2.07242521939876,2.07845748092185,2.08752610762117,2.6394,11.7888998686008,7.89910401555901,4.63431531514899,7.15968294978377,0.355452594901379
mp-555451,Sr3U(Te2O7)2,2.00340667364367,1.89250670276224,1.92242521571061,1.9862,9.36095274537785,6.67227969959105,12.8255902530406,25400.7012883857,0.078008490121532
mp-12978,SnO2,2.18174038327203,2.2065619388542,2.18811726148303,0.9854,16.9633970181806,10.8653349646678,6.60468374394497,0.169599676459287,6.04764536696652
mp-554138,Pr2SbO5F,2.08821389948444,2.07262885244802,2.11116013367058,3.5731,15.171110890847,10.1181816947069,16.3220425106879,0.710286577879984,1.46914928150954
mp-18471,Sr2UO5,2.00046984481146,2.02409634158061,1.99688635129794,2.2096,8.81419759662698,6.09208849993952,16.0213958136672,597.720569972523,0.064089556779621
mp-558894,Ba4Ti2PtO10,2.18189852651309,2.23027272547552,2.27667102146972,2.0013,11.6840543483647,7.37825647304202,17.7323314190901,11.2187348067542,0.145530774619114
mp-6442,LiAl(Si2O5)2,1.53415890311271,1.52484731694685,1.52366511740605,5.3967,14.2772467283029,12.9714236775979,9.08991861929012,0.544905206042624,1.94519357156294
mp-557829,Lu2Te5O13,2.14238342273273,2.10415311467583,2.13191988592442,3.0886,13.058204155087,8.58382908844268,3.93088053633298,2.59863610632687,0.639213177445147
mp-17904,Nd2TiO5,2.15563771074826,2.10191589508239,2.12855617496931,3.4152,12.6159898744454,8.28463311298166,21.4743403533395,71.8331885783012,0.060488346301136