MP_id,Formula,Ref_index (1),Ref_index (2),Ref_index (3),GGA direct band gap (eV),Effective_frequency (eV),Average_optical_gap (eV),effective_mass_valence,effective_mass_conduction,effective_mass_transition
mp-18827,AlVO4,1.97539505162891,1.96718808455114,1.95730252899239,3.0721,10.8538985971409,7.63973267295592,9.78483467927048,37.1354138290016,0.129127440664961
mp-559336,NaNb3(TeO4)4,2.31469786365305,2.53568776469028,2.32325357419288,2.0436,12.2380908797053,7.29677181996823,17.0490500478923,364.916397279178,0.061394648057484
mp-567264,SbMoOF9,1.45202945562409,1.44165525005113,1.46271800426466,3.681,9.72681891954118,9.3979605831362,574.239203566128,1425.18017439935,0.002443100237699
mp-559378,Ba5Ta2Cl2O9,1.86983251656398,1.86983256737067,1.81543666648,3.5216,12.0419416730491,8.95845045641764,34903.2642696742,1.21153214250029,0.825429781068471
mp-25135,RbV3(SeO6)2,2.29677976959046,2.2967801396738,1.86581140526046,2.3718,10.5518133886718,6.86206436553222,668.733945052003,14.8974529683986,0.06862093152233
mp-557778,RbNbSiO5,1.93323320372892,1.91345136337457,1.8527634144704,3.2144,12.1238213978492,8.80639470737656,37.8032014612088,3.87457712476053,0.284545467592717
mp-541412,CsYP2O7,1.609064706592,1.62361631859254,1.61509214907385,5.142,13.5451826090571,11.5540435686934,24.4614808460515,0.510993967660481,1.99785086383408
mp-8960,Ba3NaNbO6,2.08530178391522,2.08376425969926,2.086690734153,3.0887,12.1514836280983,8.12248367008528,5.23345840473452,1.44234309298378,0.884394552222855
mp-554218,Ti4P6PbO24,2.02538068767331,2.01952684557547,2.05433779841583,2.793,11.0432404201135,7.54669711921452,15.4991266028455,23.0649499419303,0.107875592496221
mp-565565,K2VPO6,1.59957644393758,1.62298313299923,1.58815445092724,3.3998,10.4468496903588,8.9857151682295,72.1176917646651,59.1429340717628,0.030774413619332
mp-558191,Na2ZrSi2O7,1.78480768711926,1.73688369501242,1.75821485035248,4.5655,13.7405226103277,10.7342066728953,7.92947539103182,0.798044331386649,1.37917496822534
mp-566353,KVSO6,1.89766165055839,1.70409658176994,1.75574433788066,1.8695,10.2881075383324,7.92331217100423,77.0020407373347,6616.18836317752,0.013137813227401
mp-566379,KCrIO6,1.79108313319064,1.77729807854507,1.92867540555688,2.6478,9.80193444347897,7.36478935022508,75.0534019840764,5.80158094590566,0.185690656298363
mp-555286,CsNb(PO4)2,1.8611815709382,1.85847437700927,1.67876573410348,2.6168,10.8926644571879,8.32735774985206,14.2668146278386,14.7869695039283,0.137719840111216
mp-565869,SrVClO3,2.23435611754259,1.92211807389661,1.89386608027073,2.1836,10.19746275487,7.01835338939939,42.7233909872895,6.58937972573481,0.175165734186899
mp-6761,NaTi2(PO4)3,1.97953959040985,1.98162682157867,1.9699625681723,2.4714,10.7724080370029,7.54651665435899,3.00986088772499,14.2769240230723,0.402284367523625
mp-6125,RbTi2(PO4)3,2.00055463309553,1.99602301339438,2.02508775612318,2.6343,11.6897917504478,8.07935296345021,3.69313319525209,10.6501434076898,0.364668244918569
mp-23630,NbBi4ClO8,2.54027709709,2.48603044631396,2.42303839012097,1.3611,12.6059051760764,7.29222027810009,4.54815061007479,7.99967215783698,0.344874710568032
mp-10499,LiZr2(PO4)3,1.77093159099949,1.76863697518739,1.76481512346195,4.2388,12.8127805333608,9.96407124046976,11.4919135320471,25.7161898641638,0.125903719449617
mp-560478,BaY2Si3O10,1.80313145666088,1.79603293678039,1.77288934228846,4.8272,14.4895788484201,11.1297247070336,7.97433459073494,0.469636194565401,2.25471008662488
mp-556719,K2Ti(SiO3)3,1.72581879408007,1.73057233885209,1.71883252238256,3.4143,11.7837069837624,9.39063407579357,8.47979752266657,43.4646705385736,0.140934535591281
mp-774586,Nb3Sb(PO4)6,2.00254024678657,2.03493961335466,2.04225859528121,1.2367,10.8682417817146,7.44808120521008,5.37664402697546,5.43119315109935,0.370111228813271
mp-14871,Li16Ta2N8O,2.15836632201302,2.15962984791376,2.14301977825684,3.4944,12.759895399408,8.29623080229523,5.23241382681206,0.859549859760193,1.35451602507261
mp-560884,TaSCl7O,1.61193600059059,1.71455811216768,1.62809630243423,2.8723,8.26440668554229,6.88760111590178,100.097253167942,7.59135079788556,0.141719145915072
mp-8294,Cs2Li2TiO4,1.804915563122,1.78733540500937,1.80525406799154,4.0684,11.0768622142479,8.4695627431164,20.6094309617701,0.623460267631139,1.65247292506912
mp-561202,K6NbAs3O,2.33321069130072,2.33321069130072,2.33321069130072,1.0735,8.62168134407058,5.24410585308761,10.6766956738198,0.738917452729266,1.44699307903029
mp-540949,Ba3SrNb2O9,2.06074795887319,2.06074825488219,1.95554998401984,3.4291,12.2282850894668,8.38340030864449,21.6774906251244,2.65582001107208,0.422662341191189
mp-6475,NaZr2(PO4)3,1.74794836022121,1.74852847846411,1.74537193170969,4.1985,12.881958252311,10.135668682646,3.68004851014173,10.5501840647312,0.366520624541245
mp-556709,Na2ZrSiO5,1.87703532998183,1.82862058393752,1.82688007269224,4.0045,13.2296991660937,9.8799076982384,3335.82353226436,0.955499250629754,1.04687307198963
mp-560032,NaNb2AsO8,2.16813250748196,1.96326944661195,2.10644660506741,2.7086,11.8152055086368,7.9173466374428,42.2053632017383,7.61058896593139,0.155089546700936
mp-645272,TlV3(SeO6)2,2.39338162021856,2.39338150114018,1.98355105807741,2.3671,10.9023465571772,6.81562147387129,325.490311580466,12.8346598895014,0.080986312170622
mp-636464,Cs4V2S4O3,1.86973659107373,1.97267190125474,1.85227270940323,1.9862,8.93542354313385,6.49544576732183,4.03384552085065,36.8745022573474,0.275021413631349
mp-554886,Ba3Nb2(P2O9)2,1.80550549154524,1.79556689376921,1.75508224878494,3.1497,12.115982193267,9.33331757918289,5.70048554574,145.606232848942,0.182291491166454
mp-556139,BaZr(PO4)2,1.75952458067513,1.75218711329584,1.7416174178045,4.2066,13.3145914802873,10.4533963818313,19.9115591322971,10.2882556884937,0.147420290644499
mp-6474,Ba3MgNb2O9,2.23875919875274,2.23875899551515,2.1921493516638,2.8221,12.9065656332444,8.16981287615871,2.24538428598554,1.02921424794712,1.41697306317307
mp-25582,MgMoH2O5,1.70371902026126,1.72946580480795,1.70893210807217,4.2018,11.920086262003,9.56092837953154,16.7104024656443,8.5396767549384,0.176943414281998
mp-8961,Ba3NaTaO6,2.04087309992562,2.0394519705058,2.04215579229402,3.4214,12.6899559232534,8.64310988914599,4.70716892128561,1.17699194561936,1.06206540542077
mp-562135,KVPbO4,2.08336187447116,1.97886812344835,2.08723697983722,3.3797,13.0344508751106,8.84360408677382,66.527075805279,6.42517630222292,0.170669226486702
mp-554508,KYP2O7,1.5740887586156,1.60014554338035,1.59296799716755,5.1441,13.6260905584537,11.8377313368961,9.72540478373145,0.556999173651777,1.89815828362292
mp-6238,Ba2Ta6Te2O21,2.24568459495095,2.22588630886665,2.10202905783912,2.8475,13.2614116555229,8.49721986845567,35.5415703900913,1.96490576915577,0.537066324815907
mp-13042,NaSr3TaO6,1.9762675729769,1.97560408483076,1.97688911676907,3.8971,13.4423396710513,9.42028422283131,4.21667231469309,1.39201735796544,0.955535679059006
mp-19302,NaCaVO4,1.82838388748096,1.82917057159796,1.79706341012219,3.7081,11.2116757938999,8.48643734334221,7.89634965767516,3.91230035145366,0.382244892598869
mp-17891,NaYSiO4,1.71494146547338,1.74844791172056,1.76701717592105,4.4349,14.0179472394687,11.053423688745,19.3582689841571,0.519549784152652,1.9764008766797
mp-6228,Na2TiGeO5,1.7005067803452,1.89193926699564,1.89193926699564,3.3693,11.8747166252048,8.9417868270276,62.4520268354546,9.46231454091279,0.121694678913725
mp-6600,K2Zr(SiO3)3,1.67318439808648,1.67318443095793,1.72256331378559,4.9513,13.6871091299416,11.1396564285309,7.77433856270597,0.623431187343475,1.73265457278641
mp-6565,Li3Sc2(PO4)3,1.70319092881567,1.71669517969848,1.71349323021715,4.7661,12.4976311210969,10.0414285129773,5.25258958358024,30.1560330127972,0.223543144018667
mp-6310,Ba3Y(BO3)3,1.8925205732039,1.89252050187046,1.7553360248112,3.8154,13.8550508474861,10.3330979994358,691.604972485406,0.622318299708247,1.60834064823502
mp-16956,Na3Sc2(PO4)3,1.68593943841409,1.69013685836384,1.68428575069672,4.7229,12.8360173607488,10.4651414311909,7.03219227890304,12.2511429692482,0.223828202299936
mp-17562,Sr3Sc(BO3)3,1.81774625566937,1.83031893395659,1.81292244180494,4.6685,13.9820010305646,10.5715824805843,9.53177217266592,17.4659712671972,0.162166472987718
mp-556440,CaZr4(PO4)6,1.75802157552176,1.75934022292449,1.75215123491096,4.1938,12.4574782874659,9.75079672948007,20.2796651609877,21.026483919424,0.096869547871047
mp-552604,YBi2ClO4,2.40324221001546,2.40324221001546,2.24495289260154,1.5815,13.4867191695644,8.15407534752995,7.35532756619952,0.323566237415313,3.22651318468845
mp-566692,MoPb3Cl2O5,2.39215594600352,2.22183601780149,2.44513761984883,2.3919,14.2410696670045,8.60251967438525,6.75422565126633,4.765977934503,0.357875988714872
mp-642398,RbVSO6,1.90286758866717,1.73406268052801,1.76701312954941,1.8177,10.5629473239807,8.06733636253084,14.1791011860953,1677.85218324545,0.07112233222023
mp-541282,KZr2(AsO4)3,1.80746900111731,1.80628892760821,1.81320495807837,4.0527,12.2756395096575,9.33713326456966,3.66258265818049,2.86818898708495,0.621683441087819
mp-17888,K2Zr3OF12,1.61436587550654,1.61731175411545,1.58640881238097,5.4284,12.7218656502471,10.9242922327062,243.418095341982,526.828236407359,0.00600630988357
mp-6150,Na4Zr2(SiO4)3,1.77531575783014,1.77919522256553,1.76003012474219,4.3216,12.9981823911691,10.0893317466902,3.83538197832347,0.836798087852193,1.45576163481202
mp-6361,NaSr3NbO6,2.02718582276021,2.02647074985059,2.02785621038574,3.321,12.7994755661896,8.76931400749757,4.8902812273884,2.0430482740094,0.693951912148474
mp-25305,Y2Ti2S2O5,2.63393420191166,2.62782151791175,2.6478975811009,0.788,9.80721163764437,5.41176744412242,74.6126247414284,3156.35386850903,0.01371937884644
mp-557108,Ba2Nb2TeO10,2.12201489862819,2.01319559904148,1.947407371353,3.0271,12.2510106608779,8.39220034048533,12.2535871607736,8.29114177732908,0.202219405734038
mp-650228,KIn(MoO4)2,1.85578482858331,1.79386118749473,1.83896395016324,3.6562,12.4539195054065,9.37106792473817,9.72905962311168,12.3676699520438,0.18364083077682
mp-6289,Ba2Ti(GeO4)2,1.87377263295203,1.87377252888391,1.82461820663941,3.7671,12.6777635476816,9.40431472053834,88.159245321916,0.863360255485766,1.16960814881497
mp-679927,Rb2Sc(NO3)5,1.56695117664846,1.56695117664846,1.54762095811604,3.0554,10.6408778041111,9.43354395430653,85.7548984641243,159.82549220554,0.017917965591746
mp-560407,KNbSi2O7,1.78249236183497,1.79561698588535,1.79561698588535,3.4734,12.7705793774652,9.80637056159282,4.34861151312416,10.0874001846885,0.329092029220798
mp-557289,TiP2Cl8O3,1.61427265974494,1.63395883363076,1.62174678048085,2.7352,8.53669245407217,7.24603522178244,202.720755082506,64.2114525774064,0.020506439855046
mp-16691,SrLi2Ti6O14,2.31804294826476,2.30049361659623,2.2471621703829,2.8383,10.7099079458305,6.61832296389211,3.92236710172328,6.60506469469198,0.406347061057781
mp-7181,CsSr2Ta3O10,2.09459613052254,2.09459613052254,1.97412161986034,2.4334,13.6404624650478,9.23658960911844,5.83533335622719,56912.7094733476,0.171387386158473
mp-561259,Na3NbOF6,1.54837834200818,1.51658737301878,1.51140921990042,5.1025,11.8003461056365,10.7382931403698,90.5270330947366,397.338507527507,0.013563169848795
mp-17020,TiTl2(GeO3)3,2.11477462629,2.11477469012659,2.1548489668652,2.6782,14.1271445812683,9.27910154051077,1.8932660091134,1.20442009241757,1.35846288516264
mp-560208,K3NbAs2O9,1.82629358537996,1.7276066508323,1.73714859468037,3.1394,11.8061191881235,9.20393183411229,167.731195715332,507.88766036568,0.007930859526966
mp-560104,LiTaGeO5,2.06846212921581,1.94680335935605,1.94007434651356,3.8007,13.7383474689966,9.58926895995557,7.42564248964564,2.0684041065733,0.618133002437473
mp-541956,CsTiAsO5,1.99319728576978,2.07099186623222,1.9712909069947,3.0155,10.9095485401947,7.52479622350813,9.34109530291808,11.901526454357,0.191076662485468
mp-622115,K3V3(BiO6)2,2.05673095469485,1.99380225699541,1.99371162658996,2.9296,11.8237499165022,8.14489410437592,6.61662404724664,8.10794173242897,0.274470338894382
mp-560919,Na5Y(CO3)4,1.58224624189789,1.56822831245964,1.5400220193231,4.2043,12.9532677787124,11.4587511383513,5921.91343948103,0.940817954439237,1.06307374969088
mp-6539,RbTiPO5,1.90206175241499,2.02032300635319,1.88769710758903,2.9236,11.290418722907,8.05795021270135,24.4668598650109,20.3366658176254,0.090043880761122
mp-17298,SrTi4(PO4)6,1.97755709904923,1.97766948957605,1.97700039706622,2.7937,10.8747083371375,7.61691908324074,19.4071250395338,29.6258959779604,0.085281720654183
mp-510264,KY(WO4)2,2.0431720656861,2.05964629973207,2.2338080065216,3.2658,13.8491533309148,9.15527809692252,8.36608107537159,9.81576554281346,0.221407202372199
mp-6651,K2Ta2(OF2)3,1.72102423283346,1.59700536317196,1.60042066345071,3.9248,12.4802454014347,10.4819089440335,641.847239272405,1175.19446499855,0.002408926118118
mp-18733,AlTl(MoO4)2,1.83373918538052,1.83373919628719,1.77975910729514,3.8817,11.7909686630693,8.93648466697509,10.4983742924595,4.9734454231975,0.296320697524336
mp-6706,TiTlPO5,2.11793857323578,2.1667402751599,2.08544619206538,2.6891,12.2229032352596,8.04374096448395,2.90194440016032,8.72674640105531,0.459186784215109
mp-14972,Ba3Sc(BO3)3,1.96445230789653,1.96445241734179,1.78414458214574,3.4742,13.3733810365282,9.69272971409732,813.205095730189,2.16614226225086,0.462879898114242
mp-18832,K2VO2F3,1.69289108037109,1.56392151977009,1.5424739025345,2.9836,10.3711964516424,8.94385257181608,54.548747640849,19.4694213211084,0.06969482144118
mp-556169,YSeO3F,1.97090565223199,1.89232723914232,1.82319740840097,4.3784,13.5732359522214,9.88003757962085,6.05684396930471,2.94234030616434,0.504968000377834
mp-6394,RbTiAsO5,1.93864202213818,2.03861837527282,1.92460797826466,3.056,11.1094702055909,7.8172600415103,12.1479930362409,12.2986325441338,0.163627976891282
mp-14704,Li6Y(BO3)3,1.63292306309881,1.67663230614229,1.68683036787935,4.7399,13.7525432361809,11.3610321989021,3.1793588196857,0.663146387504375,1.82249150131736
mp-647285,NaMg2V3O10,1.85300207231401,1.93015642112239,1.95463121074028,2.8617,10.5678340569975,7.62897626141854,78.0264975465101,88.1643652795979,0.024158610093698
mp-20620,Ba2NbInO6,2.23223949207965,2.23223912473552,2.23223932408691,3.4214,14.7667195455858,9.31575025584014,2.26732608267115,2.66418388098696,0.816397628480816
mp-14977,Na3Y(Si2O5)3,1.58503567152288,1.58236953648634,1.58177819557611,4.5279,13.7980130917971,12.0374258963595,7.18261623537746,0.523296126369396,2.05018892302619
mp-555105,Ta9Pb12O20F29,2.10872594710645,1.97741211688409,1.97636328897296,2.9555,14.8059841688797,10.1720852819956,11420.885144624,14962.0487640128,0.00015439465438
mp-15103,Sr3Y2(GeO4)3,1.89180736598629,1.89180726819621,1.89180724440943,3.1359,15.0154250590575,10.9494131059951,4.68490266260232,0.396517909002254,2.73540579148928
mp-642284,CsVSO6,1.66370362444758,1.88453308010234,1.64421602595279,2.4249,9.89658154073305,7.86052070734032,108.664523484961,637.104062097941,0.010772237785098
mp-554412,RbTa(PO4)2,1.75694125684384,1.75491167299098,1.62324416832465,3.4597,12.1651117662704,9.77095056629527,12.1738930169774,8.55565914024329,0.199024694032026
mp-558083,BaLi2Ti6O14,2.31892456539664,2.30220173095235,2.24367231564683,2.8908,10.7084183218099,6.61811740964933,7.61719469907835,6.39075451068003,0.287757973708839
mp-555447,NaScB2O5,1.66786586391112,1.77239071313297,1.80084578740102,4.9256,12.7715315301978,10.0502025737909,18.8150217722917,9.87671763602809,0.154397233566456
mp-774752,Li2MgTi3O8,2.15623816170663,2.15623816170663,2.15623816170663,3.3078,10.5590754318959,6.8583588319799,8.52635536762087,5.88081568599108,0.287327844489681
mp-6332,Li2TiSiO5,1.81954913646211,1.91223015351186,1.91223015351186,3.4908,11.9581681211649,8.7650166722919,2.02536925061537,4.48718714518185,0.716593892032414
mp-18837,KSc(MoO4)2,1.83035640245281,1.83035641337965,1.73084081590422,3.6132,11.4067969618592,8.73112852824626,4.52171133637404,2.74305390079126,0.585712387489144
mp-561382,NbBi4BrO8,2.58222260272038,2.52539776866932,2.45479342511748,1.4757,12.646166183962,7.22859297400634,8.08742139454815,9.73021740235045,0.226421432734498
mp-19450,ScTl(MoO4)2,1.90189720016619,1.90189697407615,1.80917204820327,3.6201,11.8182957798939,8.7070995841098,3.85690369664102,6.18709547205174,0.420902064005642
mp-12878,Sr2YSbO6,2.00538936618304,2.00253039177936,1.99447077942997,3.7516,14.85583458731,10.2968143110123,9.33999192515838,0.455058685762789,2.3045852362149
mp-19324,Ca2MgWO6,2.05176907082644,2.05176698482064,2.04226778851354,3.8287,13.9965634763741,9.50133025903785,15.1232283959677,2.14722249203975,0.531841370941789
mp-6113,LiTiAsO5,1.98858001599131,1.93617756675363,2.0708432654356,3.318,11.3630371411304,7.88382947706894,3.73665585741123,27.0567353319133,0.304578346180195
mp-6169,Ba3Ta6(Si2O13)2,1.97673341399391,1.97673331028746,2.15926914718846,3.0341,13.7216539942659,9.35887433803725,12.9094159036207,17.2998129727306,0.135266931674449
mp-704727,Sr5V3O12F,1.84026696161182,1.84026692900785,1.76015409552687,4.0192,11.7846055776961,8.94195578360726,29.9469172934481,29.4574704371026,0.067339664819284
mp-18892,KBaVO4,1.8353503289563,1.79077222448864,1.82316825608609,3.983,11.6248654182494,8.80741715101056,4.64106068272459,18.6729412238888,0.269021413668951
mp-16998,Ba2Nb6Te2O21,2.38332158551883,2.36338251453293,2.22901554727642,2.1591,12.0914579892337,7.37518375364118,18.536608437279,3.32835641182503,0.354395893994911
mp-546864,Y2C(NO)2,1.90499012333398,1.90499020469923,2.21155441940731,3.9686,13.5162072965684,9.34185253106438,3.11484142993069,0.943770588675315,1.38062316356354
mp-542836,Rb2SrV4O12,1.73468155867295,1.79017689908009,1.79017689908009,2.7936,9.91560321345088,7.69589971629275,4.84927834723602,4.36881821548421,0.435111103094039
mp-557792,HfSCl6O,1.68158415192342,1.61245131709457,1.68938714331559,3.2596,9.03354425228018,7.48291627807349,199.126556820228,42.0992131064164,0.028775344958251
mp-18090,Ba3TaAs3O,2.55089004271058,2.88718428057511,2.81504778467436,1.1024,9.30967018369279,4.97108996260742,1.11137153792321,1.0057507859279,1.89407120022397
mp-558883,Y3Si2ClO8,1.8967854253974,1.88344549960969,1.89234978267761,4.7292,14.6707232320523,10.7030108942398,9.72034226162393,1.77736788023477,0.665506759974214
mp-510667,KBi(WO4)2,2.27024947968279,2.27174822108437,2.37897425374887,2.7241,14.2262427038145,8.73350146572392,1.83393694609335,1.63327841612096,1.15754050132429
mp-772395,LiV(OF)2,1.67103920959384,2.3875020984284,1.81262950158051,2.7263,10.7279860143451,7.58436184398249,18.9435601124063,80.9006685998435,0.065149225205565
mp-8891,K2Zr(BO3)2,1.82951534292555,1.84700725228679,1.69579550359116,3.3991,13.5410410171699,10.4006386798403,18.1027080505529,1.40704025188297,0.765952075699853
mp-14864,Cs2Ti(PO4)2,1.63550313053812,1.65159789295094,1.61385418796123,3.4477,11.2704217712446,9.50175534602956,25.4389151562431,32.7784125485483,0.069817736163698
mp-554265,ZrSCl6O,1.64035506217404,1.56687531412043,1.6189740053503,3.2725,8.34690614011422,7.15439385121916,156.884072559168,11.4007298878629,0.094087815711555
mp-6101,Ba3Nb6(Si2O13)2,2.08891712138132,2.08891711180698,2.35003627631575,2.2893,12.2687766557381,7.90762264250525,11.9003042276698,16.6989330990448,0.143915530442931
mp-630491,KV(IO4)2,2.01851273961796,1.80528386687523,1.95753161660291,2.7238,10.6114449462958,7.60766202753019,124.502944789792,24.0883262992274,0.04954582321018
mp-24217,Sc2P3(HO3)3,1.64101981097121,1.64101990847156,1.689312647203,4.6347,11.4201202879561,9.4838809329988,28.7382217978159,4.11374604279646,0.277884305529159
mp-17085,Rb2Zr3OF12,1.62091425744856,1.62363322520821,1.59395988029812,5.3358,12.6293911987626,10.7951911710233,64.0181173027585,1386.36646880028,0.016341888083874
mp-18897,NaVTeO5,1.97557849249277,2.12217327520634,1.98688118165128,3.0216,11.6056213010342,7.94777576327963,4.07029095757154,7.52360329718365,0.378597717840094
mp-540905,YAlGeO5,1.98520815029558,1.95087452441206,2.03994547231047,3.811,16.115227019127,11.2135601676924,11.3154741902317,0.462956095672264,2.24840659584472