MP_id,Formula,Ref_index (1),Ref_index (2),Ref_index (3),GGA direct band gap (eV),Effective_frequency (eV),Average_optical_gap (eV),effective_mass_valence,effective_mass_conduction,effective_mass_transition
mp-557130,Zn2TeCl2O3,1.84292710924768,1.84708224776267,1.86419708185589,3.6549,12.9216108905365,9.61432771277358,3.7873006511223,8.93660575799124,0.375939607949247
mp-555736,BaHg2(ClO)2,2.03776763150267,2.10152466081176,2.10152466081176,1.6909,13.0004443209232,8.70797971855828,1.41458751202784,0.401428620128363,3.19802275642225
mp-560471,Zn2B2PbO6,1.88431827194877,1.79606681390198,1.78678036423059,3.3606,14.9488292023792,11.2903977719746,3.88979124902128,0.812556055423908,1.48776752899145
mp-555862,CsZr(NO3)5,1.5522102885885,1.55760095980967,1.55192248195585,3.453,10.6264985028255,9.46618218199898,155.704610665137,151.357989214093,0.013029270493243
mp-13738,CsCd(PO3)3,1.57670381175413,1.5510513305497,1.58756923313599,4.4212,13.9533734160641,12.2704334308849,29.3627376091752,0.555783465822412,1.8333186434981
mp-707138,Ag2PHO4,1.90323141525144,1.90323118669278,1.90979989004084,1.4544,12.1824030030683,8.82496759973963,6.37934878088816,0.529786524177152,2.04430854223294
mp-560398,K2Zn(GeO3)2,1.71440907603757,1.69947333900829,1.73495763925232,2.8725,14.2278662948277,11.3969152045041,12.5457904951669,0.414502210182448,2.49224038166075
mp-560549,AuSeClO3,1.76767799386653,2.27521862026487,2.24044863587631,1.4055,9.64244995650027,6.42087987956924,16.5860992489841,4.79572859160056,0.268810341038756
mp-21084,In6Ga2PtO8,2.81496846341127,2.8149688364172,2.81496846696371,0.5736,6.40911933710485,3.36262418014732,5.73757387191173,0.11139569374185,9.15129739077332
mp-561379,GaRe(Cl3O)2,1.63906603283699,1.57124188462502,1.69435537594685,1.9709,7.09882588844004,5.97998596969054,70.9621438148438,132.545840934775,0.021636580331434
mp-553924,Ag4PIO4,2.28512211708696,2.26291345393499,2.28576392919304,0.7758,12.6714047461516,7.86059373974771,4.03909700386662,0.303542311315895,3.54201372491801
mp-6118,Ca3Cu3(PO4)4,2.21311052593403,1.85862607320569,2.15281353581772,0.5391,18.7251556792209,3.13095912048697,13.9183072545541,17.2475161348079,0.129827180601401
mp-560934,Na2Zn5(PO4)4,1.62477883418021,1.60869675514063,1.60855058670842,3.6589,14.1634459796829,12.0969273361132,12.9370675050206,0.477469743690083,2.17167081558566
mp-556303,CuBi2(SeO3)4,2.10875522287439,2.22297970301125,2.0823546936101,1.3172,13.1320713318928,7.3686943298565,31.3083265261741,36.8809050718879,0.059054686955815
mp-9535,Al6Cd4TeO12,1.87130304600832,1.87130285897286,1.87130304066445,2.5724,14.5006923024421,10.6816742542066,12.038836480344,0.351999559953762,2.92397714800322
mp-18048,LiZnAsO4,1.74053792834284,1.74999642856778,1.73769719456527,2.9235,13.7852900363494,10.8744625753564,10.6284769434568,0.475420433397011,2.19748824698298
mp-560021,AuS3(O3F)3,1.51958969133118,1.71086197865287,1.70590818334399,1.5564,10.1453269896771,8.48811155255755,50.3714335658358,526.052638965214,0.021753472586774
mp-14778,Ca3Zn3(TeO6)2,2.00084414185613,2.00084413186035,2.00084423681605,2.1296,14.6275020671058,10.1383403269794,7.19608040454583,0.368862247243839,2.85000370789254
mp-555018,RbNa2AuO2,1.83773707586259,1.88403033149682,1.93593982086221,2.1519,10.4617289624599,7.65093107946908,14.3406794334315,1.99987231464197,0.569763626442415
mp-558332,K5Au(IO)2,1.78101466024286,1.80904731005024,1.83164623767801,1.8748,10.3782233631769,7.90126295379983,11.2409504206501,0.668110575489688,1.58571867568826
mp-6571,BaCuAs2O7,1.84227164663629,2.02790578923184,1.94846521652299,1.155,14.8208323737498,7.24985020866941,27.9062885223797,9.0903681060862,0.14584076335696
mp-555318,K2Zn(SiO3)2,1.62721093592687,1.62077648674948,1.63414445811868,3.9455,14.3056457625407,12.1103600128454,9.78254189095633,0.453877254982996,2.30546176740881
mp-560120,Na2Pd(NO3)4,1.59893761917093,1.62989360695722,1.6762939121765,1.7115,9.47836737955382,7.98368920475786,221.072789445876,90.6706063183207,0.015552329568734
mp-9745,Ba3NaRuO6,2.2758714528725,2.27417963450559,2.27742600757961,1.3484,15.4720292836045,6.09438825175299,2.87423681264918,3.68081817326237,0.619597172345635
mp-541537,K2ZnSiO4,1.68047826525665,1.68556402132936,1.68924266166824,3.5246,14.3648070561883,11.7236537587808,26.7690190624843,0.43581577966916,2.3319040996081
mp-556413,Na4Cd2Si3O10,1.68224698246126,1.69028121033158,1.70251209981016,2.7504,14.1718473785662,11.5199402274454,10.8672317063625,0.431449246491968,2.40978947684943
mp-9203,Al6Cd4SO12,1.80670871476284,1.80670868155328,1.80670862897148,2.7549,14.2369073680647,10.8420391523113,14.7688230712561,0.3890071118715,2.63835729212998
mp-555568,K2Zn(Si2O5)2,1.55744481122125,1.5625876551413,1.559700900814,4.2761,14.0615245221038,12.4714729163462,20.858548027387,0.50029594381975,2.04675890054066
mp-14260,ZnAg(PO3)3,1.64690171534309,1.67151397840401,1.66410808242734,3.0283,13.5947244931698,11.2632841023925,28.789631808046,0.508061105796738,2.00300190700616
mp-556819,Tl2Cd2(SO4)3,1.76689725507739,1.76456006415197,1.76111116628111,4.0474,14.9250381132788,11.6321275835389,25.3622056805801,1.74856856534603,0.611325108646444
mp-24502,ZnH2(SO4)2,1.59425107495651,1.55853735919291,1.62663015771871,4.6505,14.7206985230298,12.7526615412141,3.70696828275426,0.602104440835544,1.93060365089889
mp-556721,Ba5Re3BrO15,1.97359133814475,1.97359137107964,1.9055419727731,2.5636,10.8187598521749,7.67030637491452,22.2284366860765,26.8388960212373,0.082246775918133
mp-6386,K2ZnGeO4,1.76391438000828,1.76254194560016,1.76456193147194,2.8897,14.5649025681269,11.3547160900266,40.3911964251366,0.397736709107999,2.53898393261016
mp-572794,ReP(Cl2O)3,1.66220767354744,1.62240447792775,1.62166441966271,1.8661,7.83954267712144,6.60164643296293,545.350887549848,314.786997403109,0.005010433095052
mp-6064,Sr3MgPtO6,2.11578228794931,2.11764146870994,2.11413528895385,2.6678,13.2594119148855,8.75244945289452,3.13604092171778,8.98492056256283,0.430170979484629
mp-554754,Na2Zn(SO4)2,1.53666935285376,1.54035162868742,1.56811251190723,4.4946,13.9748075446387,12.4996523144937,103.027334623214,0.5928273829764,1.69653782449456
mp-556518,K2Pd(NO3)4,1.62958149228567,1.46027061190726,1.60008576957612,1.9182,9.78149555505438,8.65409333789507,934.50032832973,340.030204216107,0.004011005793414
mp-561454,KAu(SO4)2,1.95944428601581,1.62474419217303,1.92008835994597,1.4807,11.198561978568,8.40368668897443,20.1427858337472,99.8024939882167,0.059665355511594
mp-557746,Zn2SeCl2O3,1.76568170687698,1.80266074456621,1.7194505081566,4.0968,12.8969102433988,10.0603859730942,8.53518458843835,5.11181959435223,0.312787139488283
mp-556896,Ba4AgAuO6,2.34345284996306,2.35543155918401,2.26990066743019,1.9752,12.303514671816,7.51063672797989,1.29161153704989,2.83410766415801,1.12707133953676
mp-6270,Ba2LiReO6,2.15857934762658,2.15857929898348,2.15857916000317,1.8967,10.8035788680483,7.01070676111913,2.78323258153847,1.11102704158303,1.25936254442617
mp-632760,Na2H6PtO6,1.70243957308329,1.70238528835279,1.87745605541115,2.6346,12.2712701602872,9.58217288049032,4.85688649252943,1.86339544801105,0.742547960358236
mp-552934,Ba2CuBrO2,1.96365697615444,1.96550205036779,1.90467386447129,2.3231,10.4058793925819,7.39920657603357,43.229633419369,1.08448071647562,0.94523258588401
mp-17693,SrCdP2O7,1.68291112956092,1.6918514148707,1.68234463472857,3.7032,15.0312842933669,12.263042642973,48.5155215424528,0.590411779433742,1.71434510517529
mp-21533,CuP2PbO7,1.97919799161175,2.06716868203831,2.05072959943528,0.8773,18.6380139711278,6.94880508916434,20.4690821558842,56.2204356331377,0.066641295544092
mp-555851,Na2Cd3(P2O7)2,1.74079441922359,1.69990099711719,1.7227669459332,3.0513,15.4008043953041,12.3012618102775,24.472284608325,0.475518551482737,2.14382992695492
mp-557733,KNiIO6,2.41536399327306,2.41536379661533,1.59705580052796,1.7962,10.4559935701446,6.8281828722793,12.8966643831989,11.6798261511719,0.163157142316151
mp-669389,Sr3InRhO6,2.24255395475783,2.24624320588845,2.23542814243715,1.5915,15.7304850586975,9.88991664731969,5.64852902780384,0.448724475009342,2.40557625793908
mp-559067,KNa2AuO2,1.84074982276245,1.88121312721339,1.932186023653,2.0953,10.6111474863775,7.76473490722992,14.8770608232493,1.77870351306723,0.629424822263128
mp-555965,Li2ZnSn3O8,2.03839017854777,2.05961415318501,2.05956339547973,1.9476,16.6371945972584,11.2750028821063,27.9712093123157,0.29139911915517,3.46747041081847
mp-24294,HgHClO4,1.74149758254211,1.92428990279531,1.7099856870746,2.4706,12.6809944293457,9.73398907409603,5.38082546501416,2.33403656269373,0.614287394245834
mp-17392,Sr2ZnGe2O7,1.78870428243463,1.79860954906839,1.79860954906839,3.1346,14.4205711406157,11.04911524742,7.18513937113863,0.398752839172199,2.64699527961366
mp-9639,BaCu(SeO3)2,1.8736423351323,2.02103671169031,1.90427880049115,1.3363,13.7126701822856,7.26247776124493,26.9142606249196,36.105847860478,0.064851368497632
mp-557537,Zn4P6N12O,2.09988408489612,2.09988443015324,2.09988421109355,3.0256,16.7119211470169,11.1035595393992,2.55670189612768,0.993017517756741,1.39816048002481
mp-6089,BaZn2(PO4)2,1.6528067400637,1.64221397509582,1.65938423217771,4.0399,14.0878660541555,11.7413662053828,43.5930615780038,0.492675616180885,2.05267251873361
mp-10392,Sr3CdPtO6,2.21456789238894,2.21622248431876,2.21297184799084,2.2169,13.6281636953745,8.65471299015697,2.67289640670425,0.425912183386035,2.72202782686975
mp-557183,KNaZnO2,1.91337343192593,1.79294974831979,1.806167641721,1.7774,13.1954052429025,9.88818360696284,4.26608790226223,0.340662824431195,3.16986064817573
mp-558188,AgHg2AsO4,2.63972324875166,2.34760335874696,2.25977497773562,0.7386,14.4019896933037,8.51671475808713,1.33932255460808,0.293481597353854,4.15401479818898
mp-10070,BaAg(PO3)3,1.64916536769361,1.65160347541412,1.6615496652222,3.225,13.1433823001375,10.9358269195319,72.8169065205002,0.577808437010727,1.74441046847638
mp-561392,TcSO6F,1.55266635501643,1.64328868431569,1.67035575252699,2.7521,9.17726488675581,7.79607031390255,42.0809709909311,32.2487217197146,0.054772691238882
mp-15739,BaZn2(AsO4)2,1.73990542271699,1.72554971820577,1.74824599527641,2.9793,13.124794552688,10.3821521444981,39.2709556282415,0.44508664093905,2.27221768283043
mp-557250,HgINO3,1.82345440030728,2.00423399581985,1.80632056955569,1.9524,10.9859664717289,8.06570853850475,133.620941639304,0.642571984854616,1.56372973057757
mp-18422,RbLiZn2O3,1.97823537275017,1.96651240779203,1.96651240779203,1.852,14.9118790629628,10.4778737385961,4.44665196684768,0.296301631662137,3.59982752760185
mp-15728,MgAg(PO3)3,1.5989764319714,1.6261926208171,1.61282492230248,3.3422,13.3450679567772,11.4082393222066,33.467799249683,0.576612544315431,1.7641462806562
mp-15740,SrZn2(AsO4)2,1.7409073180385,1.7332865891133,1.75191903922527,2.8662,13.5883188286121,10.7234025716286,39.0032769670411,0.429100370464318,2.35609595977823
mp-650532,Cs2K2Cd3O5,2.03435345503184,1.99624290606128,2.08802023457628,1.2431,12.3033086786601,8.38440875744587,10.6437933113207,0.345184336690041,2.99095429661063
mp-561472,Hg2PO3F,1.90157823925286,1.97249676298847,2.0288284476515,1.4468,14.6483501830207,10.305794187408,0.807727489507351,0.433341219943339,3.54569161970839
mp-555095,Ba5Re3NO18,1.93489077469505,1.9348908315458,1.84379271882715,2.3072,10.6909322962481,7.74789503711717,20.6648998592042,15.072168367683,0.1147386879427
mp-8153,NaHgPO4,1.82155060045007,1.76984705271388,2.09742894516119,1.5922,13.8962327858757,10.1112133732601,6.60071220009969,0.47902778921184,2.23906036564753
mp-572546,CsRe(Cl2O)2,1.76455087203515,1.72371594527637,1.78115439532905,1.4906,6.49177540879627,5.08137112075679,26.4845106631895,112.658199781113,0.046634325389561
mp-558198,Na2Cd(SO4)2,1.61830929058694,1.6174247617741,1.59992326691001,3.9708,14.6239082189045,12.5080211694281,5.04964212721522,0.598647359124529,1.86846632794005
mp-6684,NaCdPO4,1.6823863943815,1.72922713950481,1.72061346036813,2.9166,15.0998129158425,12.1349528441942,5.74703017009065,0.440946113244715,2.44185372441873
mp-721702,Zn2AsHO5,1.81036329227037,1.86979607711643,1.83992759911905,2.0937,14.7805602025034,11.0616151768429,3.31588269634457,0.362225586224783,3.06228938002664
mp-559068,Na2Pd(SeO4)2,1.95599517126193,1.73703015230018,1.60228428501312,1.6001,9.48051173131995,7.38507071498278,104.066662472432,24.154351567357,0.051009632834771
mp-559893,LiBi(PdO2)2,2.89463739698084,3.23762081936721,3.23762081936721,0.9255,11.3143774627073,5.48966640107647,1.11868898601954,0.519482355323389,2.81889669706601
mp-16695,K2ZnP2O7,1.59332255993568,1.59332255993568,1.5293511859609,4.129,14.353850918238,12.6205945424734,3.66200417625808,0.551564661516781,2.08609856749679
mp-6695,BaCdP2O7,1.75733270327505,1.7330103490747,1.72723083865475,3.6203,15.0453966061472,11.8926116620348,26.1316029729634,0.636945334066437,1.6082612860291
mp-554083,BaZnAs2O7,1.81758511217494,1.84121691280522,1.81061448132947,2.8585,13.481725706881,10.1783421113915,17.776964102537,0.474535988926821,2.16357430225055
mp-17288,Li2ZnSiO4,1.72152321506275,1.69078251410405,1.71948733638838,3.7956,15.1283716653229,12.1589451904299,5.73765533457417,0.467516714556,2.31324817917511
mp-6730,Sr3ZnPtO6,2.17497299293577,2.17894345497996,2.17136542065125,2.6286,13.804357273714,8.90033731241753,2.83565541984637,8.11635149577529,0.475860226489298
mp-541966,KAgCO3,1.82164078237176,1.83337803248539,1.82186675692818,2.214,12.8711358815556,9.70473372062703,6.31608780589338,2.52820554246206,0.553863315208362
mp-558629,Ba2ZnSi2O7,1.76552843364246,1.76529191920203,1.77749162585932,4.1294,13.9647253323232,10.8520253811076,5.67946651917356,0.426278564509749,2.52195672506614
mp-556798,AgHg2PO4,2.46215783409594,2.23181287970116,2.11912570887147,1.1863,14.9412122235274,9.29191838131815,0.816998386505986,0.407300891175469,3.67917998600351
mp-557871,CuAsPbO4,2.11159315210104,2.17255084865694,2.144930632911,1.8914,12.3879717380911,8.08845745367216,16.7296113484771,0.864027796836379,1.21714442391299
mp-12525,Sr2LiReO6,2.23146423677369,2.22855824918264,2.22572401703356,1.7647,10.6401909109929,6.7216733475616,2.36032287291222,1.04069579484604,1.38456644110768
mp-18463,RbZnPO4,1.62389456554297,1.60193795447889,1.60272964657175,3.7042,13.9801839870177,11.9764970535246,597.309940636028,0.493903072906247,2.02636293221514
mp-557589,TlZn(PO3)3,1.66336825748239,1.67526255852627,1.72140792666933,4.5569,14.6801774453018,11.9694621504667,9.62573695532002,1.71285431437562,0.68770896346636
mp-559984,Rb8AlAu3O4,1.97924691991676,2.16441236135816,2.02764388392045,1.2244,9.37157117630153,6.33875025299339,69.6825048475323,1.05920915091052,0.958451409255434
mp-757878,Na5Cu(HO2)2,1.71753151062797,1.74483407520601,1.71461515507125,1.4867,9.84444306872551,7.84252901778157,93.7491419754219,0.831279416012276,1.21363171294529
mp-572634,Al2AgCl5O,1.61031256593247,1.63418443267582,1.62399011388617,3.4407,11.129836148664,9.4502324782339,92.1873135680507,0.550247357412363,1.82821195488423
mp-679984,Cs4Ru2Cl10O,1.89420662547675,1.84744622925811,1.98085899548655,0.6547,3.06395058289161,2.21730520924261,35.4186475062606,200.69127779382,0.033216492600112
mp-560443,AgHg2NO5,1.9153214403854,2.38292577097987,2.14248130913667,0.609,7.29771148461244,4.75753750331213,17.3879253193024,0.845147407839407,1.24073671642645
mp-18168,TlZnPO4,1.82582389347932,1.82875340601187,1.82323695388175,3.7684,15.0804340614213,11.3686910348735,9.63198939845692,0.707754675777564,1.5167396716635
mp-40134,ZnSiH12(OF)6,1.40217082411524,1.40366810535824,1.40576242302887,5.3871,14.2383903249307,14.3795262232632,10.1055328263602,0.568332476071355,1.85848913843936
mp-16055,KLi3Zr2(Si2O5)6,1.62036521809128,1.62036527980576,1.6144162102754,5.1582,13.9364625295984,11.8683187309445,4.65353499304067,66.0772030220922,0.230024213328787
mp-15543,NaLiZr(Si2O5)3,1.61833718365488,1.61632060866649,1.61630313369739,5.216,13.8495746536118,11.8053060306821,7.85736813286003,74.4161397054312,0.140707023384223
mp-8985,Ba2YC2(O2F)3,1.65152093840799,1.68774633165058,1.69588579509353,5.2843,14.0366684992235,11.5030887099851,113.366793510822,5.46173082289927,0.191913067993199
mp-770632,Li3CrO4,1.85060977788404,1.82801255192627,1.86462797361833,1.186,12.5095438485,6.33806776052667,0.004679366020804,0.004679416910233,427.406002425037
mp-31578,Rb3CoO2,1.87397140586509,1.95361923106833,1.89919876526919,1.7817,14.2959060234616,6.54933560052749,110.061924521613,2.06820498226695,0.492596862328862
mp-763259,Mn3(PO4)2,1.69173980859942,1.68900734160631,1.65862433661152,2.8855,16.598392111583,11.1712798784171,14.4904932211854,5.6239168670773,0.246822780172574
mp-19706,MnSe2O5,1.93745158907262,2.00050804797181,1.96144091167692,2.7741,15.5946795474438,8.91477584184516,7.14130206820213,1.42359129279987,0.842479289389444
mp-761310,Mn(AsO2)2,1.92414460215442,1.92414431111598,2.12040523721292,2.031,16.512458181936,8.48344488300876,8.2536669084076,0.862020428633714,1.28122358445004
mp-19140,K3MnO4,1.69274297517373,1.68901917691896,1.68641287649259,2.0563,14.7092749165815,7.74681808423103,0.003261384709062,0.003534984142415,589.50492829827
mp-18721,Mn2P2O7,1.7372933373498,1.76143672324611,1.75589533856662,3.8363,17.5337240077298,11.7754207710293,6.23077628082531,4.62730552742071,0.376602133337643
mp-19185,Mn3(BO3)2,1.88385425922495,1.85103507800366,1.85244299777348,2.0333,18.0228191552951,11.1371332875535,2.05292015913501,2.44466292253722,0.896165352950091
mp-562609,Mn(NO3)2,1.6135821113287,1.6135821113287,1.6135821113287,2.9451,16.7084597557394,9.60618627809599,5.34694044036844,5.7697580812876,0.360340334514137
mp-25034,MnSeO3,2.07430688182824,1.94625850800966,2.09063474093396,3.5303,16.230120379714,9.49394149502087,4.20970974615826,3.32746184533446,0.538075434935466
mp-761600,Zn2Fe7O12,2.39075873312219,2.30674224611247,2.30674224611247,1.2648,7.95555460187856,8.23723436527273,0.001579474138935,0.001579371322284,1266.28543667165
mp-764467,Na2FeO3,2.06673078314521,2.15879103666844,2.60298392042671,0.8524,11.259630098565,4.87669900514151,11.363644876098,25.9378169371297,0.126553679848664
mp-567008,Rb3MnO3,1.81864732424954,1.85855692137744,1.85775593122455,1.6226,16.8871251286704,7.50134226637057,58.7966650122777,0.675481750472736,1.4974326630723
mp-761364,Rb6Co2O7,1.64554307448939,1.64568448069489,1.77007527806023,1.6469,17.6183531173348,6.1901536845044,47.6178754545593,113.044226974708,0.029846612193625
mp-769774,Rb3FeO3,1.77583147567555,1.80434764665793,1.79224640047065,2.2046,21.8028208635953,8.32731850825216,132.592426116354,63.8687005710871,0.023199030334021
mp-777007,Ni(IO3)2,2.11901950911265,2.12431192154071,1.96515786388778,3.1696,13.6990885085255,8.99630034378017,16.3902089646323,2.3018929069761,0.495437110357342
mp-31983,Mn(SeO3)2,2.51835728005381,2.20787982915737,2.28645363390557,1.4503,20.5684151139376,6.66392460130255,5.07658105559591,3.41346598728477,0.489940331948655
mp-19231,Mn(SbO2)2,2.20587232404779,2.11995500188094,2.11995500188094,1.6582,18.7536178703576,7.84863829605789,46.2210697192405,0.941244421530264,1.08405845012944
mp-540673,Ba2MnO3,2.07575728109045,2.11841255424905,2.09913398810081,1.6203,14.2828346541325,8.03878961516894,14.6726633028565,2.02308229765906,0.56244921743393
mp-32311,Re2NiO8,1.74666047645214,1.74666054515467,1.68943808409779,3.9341,10.6099553592624,8.69916430891451,11.128667772245,291.169633075303,0.093292439477373
mp-770583,MnZnO3,2.73343599156812,2.86799340131737,2.89477215165546,1.4684,13.6365129868088,7.12161503750369,3.73719411633344,3.65217612165835,0.541389785913689
mp-566638,KMnO2,1.79617182362935,1.78560252575986,2.24913347758642,1.7879,25.0237905861682,8.21282216731712,39.5947708946574,1.9469747289351,0.538873209834156
mp-18814,MnCO3,1.82517569017341,1.84466118027133,1.6792941314731,3.8787,17.9127409502391,11.2347692934214,4.61729226811857,2.81994687837678,0.571193759120792
mp-19384,Ni(AsO3)2,2.12742959460472,2.12742996359457,1.9476122997147,2.515,18.7533754684379,10.7199832982051,15.5288445341304,3.33511015572187,0.36423646272775