MP_id,Formula,Ref_index (1),Ref_index (2),Ref_index (3),GGA direct band gap (eV),Effective_frequency (eV),Average_optical_gap (eV),effective_mass_valence,effective_mass_conduction,effective_mass_transition
mp-23363,NaAlCl4,1.56261063928286,1.56305409055477,1.55271985238806,5.1617,11.6070115413349,10.2978715910872,14.0399177656896,0.444240886706016,2.32225647164924
mp-504894,MgH12SeO9,1.56021965440767,1.55309546390426,1.56492206834718,5.1175,14.2453841272993,12.6391163876042,94.0598616461247,4.38465318656743,0.238699736588033
mp-625151,H7ClO3,1.50979596303607,1.51645646492077,1.48375233445478,5.2273,14.6199213746127,13.5358758899341,22.1122902788401,0.49464461915586,2.06687716720984
mp-23326,Ca4Cl6O,1.79236104621809,1.79236106853502,1.80543077408136,5.2781,12.0980813876216,9.26258385490767,8.24080907037023,0.397321826983041,2.63819871726008
mp-23321,Sr4Cl6O,1.7392979589478,1.73929802506643,1.75226039160851,4.6565,12.9722873436466,10.2280266661962,10.3534062070396,0.389724561600122,2.66250131795525
mp-29909,Ba4I6O,1.98813452009667,1.98813461817856,2.00548786084583,3.9884,10.6314164401047,7.39141267663432,10.9714335365775,3.08892320642264,0.414883202558964
mp-13252,SnB4O7,1.97246175374835,1.98485893201507,1.99150782072278,4.191,18.4831151544674,12.9137023444059,1.96348511365554,0.677360128036378,1.98561803907626
mp-6655,Y2Be2SiO7,1.87343003338796,1.91316105699442,1.91316105699442,5.193,15.5655448517446,11.3058071184029,7.2624624846759,0.689821734304025,1.58734423112931
mp-6564,Sr2MgSi2O7,1.69358999465632,1.67723118561515,1.67723118561515,4.7703,14.2385722834675,11.6377760962073,12.7690742029765,0.453380707006044,2.2839660739098
mp-27755,KAlCl4,1.53859560963887,1.52789742129503,1.5330419302811,5.2972,11.6213154770644,10.5133843719994,19.7808024396023,0.465173685787727,2.20028873659558
mp-23672,PH6NO4,1.54855113896829,1.52372892602326,1.53575170193622,5.5606,15.2896908726192,13.8024832131875,18.1258467345387,0.537817928147049,1.91453514888835
mp-28123,H7NF4,1.36590708688402,1.37028327363359,1.35857741774254,7.2568,14.3560244959796,15.0786211606597,18.4702481427774,0.619272280926567,1.66893970447437
mp-9747,B4PbO7,1.96666869095941,1.97454984996581,1.96451438528711,4.8195,19.044528696308,13.3929406843966,2.38288063933042,0.663497644208347,1.92682448701313
mp-558753,BiB2O4F,1.94328626558209,1.9432863710735,1.97631265492077,4.289,15.9135092465833,11.2647209724743,5.15710587742359,1.90257416675463,0.719510896264567
mp-23843,LiHSeO3,1.58722087309864,1.67358987508888,1.6657535081758,4.5341,11.8919538242097,9.97036879962714,6.33349853755255,4.01924805506,0.406693375989945
mp-3491,NbSbO4,2.46207435915327,2.48489559136798,2.4867192161561,2.6644,12.6910895700572,7.35380371005991,3.4926176745955,2.95106960464953,0.625178385967
mp-21266,BPPbO5,1.88347086518481,1.88347079085395,1.92633271269529,4.5351,16.792669037132,12.2099130224503,24.2237926784815,0.866734533591526,1.1950375327023
mp-9338,Ba2MgSi2O7,1.7377290151229,1.70230954588171,1.70230954588171,4.5783,13.6773463236635,10.9699027722187,11.1411236701041,0.470030874328593,2.21727737071453
mp-555903,Al(IO3)3,2.04312838314189,2.0431283929308,1.94704303496353,3.4199,12.3772270005465,8.53985057380986,13.5519628360019,0.952192783476259,1.12399754608764
mp-6081,Ba2Ti(SiO4)2,1.79116915728247,1.83480064312175,1.83480064312175,3.7866,12.5652154550806,9.50073282027016,20.7413361448972,329.240771941281,0.051250192565589
mp-31408,Al4(B2O5)3,1.63280527926633,1.66700706357232,1.62538118606067,5.9801,15.8966767712644,13.331911552062,7.59143628306551,0.594012604615423,1.81519333895561
mp-6486,SrBPO5,1.68396420686427,1.68396429000142,1.69410538338086,5.3819,16.0390456700217,13.0721158662201,5.44565999777745,0.506236926831881,2.15899212346113
mp-6040,BaBPO5,1.67659970177738,1.67659969581293,1.71286393797056,5.495,15.36497287469,12.5125035828545,3.67037599760459,0.501101866032029,2.26805387829228
mp-561104,Ga(IO3)3,2.06252927251954,2.06252921433855,1.953480586031,3.3618,13.0993515743476,8.97863718137649,13.526096082892,1.0360573024843,1.03912874088497
mp-23400,In(IO3)3,1.98318237436702,1.9831822533494,1.8487523171047,3.4465,12.4408541177691,8.87202712616275,17.9249406933981,1.65203990185807,0.661100446162026
mp-541629,BaGaF5,1.53064972805668,1.53904133472756,1.55017870260174,5.7568,15.278630773394,13.7516894484147,21.5068202184026,0.603742113064423,1.70283321511655
mp-757031,Mg2TiO4,2.00969696223087,2.00969696223087,2.046831016474,3.3894,11.0619015615987,7.59568813745152,4.72271388720144,8.21757954659957,0.333432993847335
mp-540634,TaTl(GeO3)3,1.88289502628267,1.88289490413034,1.91625920219578,3.781,14.2696236374291,10.3943427226647,5.37648777737026,1.5527283331206,0.830022692210084
mp-18578,TlZnAsO4,1.92592156382341,1.92454058154148,1.91630068360892,3.2731,14.2492664342749,10.2392845809417,10.490615383324,2.26040125220836,0.537722622842512
mp-4376,BaAlF5,1.48471784188108,1.4872463010544,1.49701140610217,7.2832,14.3334262706305,13.4175220718176,31.0402649346836,0.504273324643102,2.01526777372409
mp-24390,CaPHO4,1.66984622046463,1.67772760899974,1.65410630855456,5.4322,14.5755694938408,12.0276582596575,32.8635643301878,0.527733706449035,1.92532390832369
mp-566556,SrTlVO4,2.08764432554973,2.13330048750756,2.05198485130861,3.3764,13.0101438730276,8.67584377368076,2.9069613921079,4.44426845322617,0.569010726621354
mp-557773,Sc2TeO6,2.12938794727499,2.12938804119869,2.06330717538616,2.9882,12.3315483851811,8.16815474250824,11.8084856051903,1.14128633052787,0.96088917267425
mp-556717,Tl3Ga9S13O2,2.42393256713135,2.42393261044939,2.44958047428534,2.267,16.4451589083501,9.67101990202141,3.90358129960702,3.25502695262614,0.56339213370224
mp-559961,Tl2SeO4,1.96124733524357,1.94699254749473,1.95596044182903,3.3626,13.7340124191289,9.71994830067019,5.94360454790464,1.07743658244324,1.09637694308403
mp-3281,Al5BO9,1.65371038274542,1.64329190346694,1.6333729488393,4.9749,15.628489976202,13.0924029588667,51.751137210832,0.48895380322435,2.06450623431054
mp-2654,Al2S3,2.20269626140328,2.20269650882731,2.27328126064506,2.817,11.9342304765152,7.54581581962647,8.01310877130857,0.373410228861503,2.80281534690858
mp-28549,Li8SiO6,1.65959461917662,1.65959475173911,1.66722314943141,4.4497,14.0525557543443,11.6331079789446,9.52741896356969,0.640715399890471,1.66571558940939
mp-3079,CaTa4O11,2.26200774755526,2.26200796196654,2.32876796182015,3.6155,13.6489549869052,8.44764614686842,5.45419859383382,8.20984224274037,0.305150012622383
mp-628859,KSrVO4,1.83235919240743,1.79686035628816,1.82340647141552,3.8561,11.9296054461705,9.03301202025933,6.12093636901347,16.500252867254,0.223978828209248
mp-14058,KMg(PO3)3,1.55538625427898,1.5553861932009,1.54136490812526,5.143,14.5306807203936,12.9744959274137,6.37260668165605,0.545029874786677,1.99168346780973
mp-23334,Bi2TeO5,2.38593376060611,2.33881090727746,2.3024178400108,2.428,12.5123242528312,7.58623731125144,3.19420364416851,15.1078260171731,0.379257937767794
mp-760755,KAl11O17,1.70481100712073,1.70509638144006,1.67122114335596,4.6549,16.0583529428013,13.0374161869497,15.5744080346703,0.43606914899311,2.35742217889789
mp-677192,K4PH5S3O16,1.47224629732936,1.49749151917465,1.49384552079524,5.2736,14.0004507630938,13.1250582878796,927.021000135635,0.566144476489579,1.76741230429366
mp-541462,SrTa4O11,2.27068244146996,2.27068269910175,2.34273579176142,3.6279,14.7609317667773,9.10162035449185,6.71250973668792,6.87637281822592,0.294401081844111
mp-759722,SiH8(NF3)2,1.41063467630709,1.44260624565402,1.40792598171921,6.4646,14.8561868034179,14.7704998723812,39.9227873139274,0.573220412959373,1.76957799010952
mp-24610,LiP(HO2)2,1.49859310021099,1.51578561148996,1.51559962391128,5.5778,14.6765305096991,13.5169249420346,44.6983285719525,0.578629877185867,1.75059267412467
mp-622018,BAs5(Pb3O10)2,2.01649190923247,2.01651163894484,1.92513119812651,2.9799,14.5881415496647,10.1781525859802,52.1064305851711,1.83260827219035,0.564861840677195
mp-29305,Re2PbO8,1.92610649757484,1.92610648199937,1.78533324900423,3.7736,11.5181927692066,8.45152390297908,5.85042317177505,9.31212087634571,0.278314728718938
mp-29839,Bi2SeO5,2.32750917721069,2.24193679438114,2.16378514876131,2.9832,12.560210870131,7.88794358838977,4.32507305844148,1.09615883046759,1.14348652075249
mp-639714,TlVTeO5,2.32309634754997,2.35419419759713,2.27875477618808,2.3594,12.1424833982926,7.4234475961828,3.33339664891855,11.1958196519508,0.389313353913215
mp-28456,Sn15Os3O14,2.91141301089351,2.78632981895539,2.82457347753603,1.5585,16.7871132426505,8.74654428429672,9.07130928394796,1.34650606694197,0.852900495406525
mp-17677,Nb9PO25,2.41609614254069,2.3622191684939,2.36385914343474,2.2763,11.989106805696,7.17377654550708,4.55599381477011,2.21774631522102,0.670399279795514
mp-770481,Ta9PO25,2.23490922858178,2.23490922858178,2.19106364124824,2.8135,13.4210636451678,8.50485533732632,6.27101415986665,1.80720782353185,0.712803631569432
mp-25708,Bi2MoO6,2.53485742597094,2.45173772047501,2.55990039454663,2.1543,12.9999710601313,7.44323231749752,3.15895105847135,8.94384885858775,0.428369463769289
mp-3660,LiB3O5,1.62903394378386,1.64370631196695,1.59552174225236,6.3532,16.1345997878845,13.7004080719044,6.76611684315213,1.20428893647569,0.978160772846248
mp-16964,SiO2,1.43503834791966,1.42185448622565,1.42253028438765,5.7063,13.0651978340149,12.9169439240908,7.6313599476562,0.610546163152031,1.7689160324501
mp-559872,SiO2,1.53421640585675,1.53421640585675,1.52288081936834,5.6414,14.486929115043,13.1330702030734,11.5543737707131,0.532430542941012,1.96472656681658
mp-32406,Ta9VO25,2.22104413958841,2.31629403142175,2.31351710389182,2.582,12.8516870043372,7.95604561818818,7.32831808172311,24.0463945646028,0.178043234949136
mp-27640,Cd(IO3)2,2.02446004900072,2.08025189820848,2.04903857699166,3.3178,13.13840769827,8.90870890082348,8.18142286335222,2.58636799402441,0.508870710186946
mp-24118,H10SO8,1.41280310730123,1.47713758668582,1.47713758668582,5.5319,14.5212776955961,13.9869421220929,74.6793260837252,0.56700312093429,1.77704930946582
mp-2254,Al2O3,1.80053934419662,1.79702051741209,1.78930152573567,4.8274,17.5375877897757,13.4351279387262,10.6806222787176,0.368808096850754,2.80506472124679
mp-555203,Sr5B3ClO9,1.74305670877341,1.76210501105922,1.75548450861863,4.0641,14.3112091748838,11.2203987219962,167.913970331895,0.533396056298874,1.88073494612185
mp-17066,Y2TeO6,2.01300891205181,2.0030156264992,2.01930086168456,3.1009,13.8158098381479,9.5295888889682,18.7043660956633,0.624591979326474,1.65450866840096
mp-23427,Ti3(BiO3)4,2.69189395964997,2.57771777353534,2.5729974873676,2.5362,12.1052772769589,6.72436328145095,265.686768676043,34.814174448021,0.03248776322718
mp-29155,TlB3O5,1.74322789101138,1.76343674964542,1.72295117748589,4.3394,14.9440581398397,11.7854504291217,2.00177912267347,1.76692377659143,1.06551098478534
mp-3977,CsB3O5,1.5607253057473,1.59716605273215,1.54792826707183,5.356,13.8112143276599,12.1729373290857,11.7730095629425,0.54764011570403,1.91095675394614
mp-696457,ScP3(HO2)6,1.55532865658677,1.55532856657364,1.57605967843861,5.3068,12.9161885359254,11.4363520983,14.0134599478854,6.43495726420903,0.22676115162831
mp-13546,Y2Ge2O7,1.93862669949632,1.93862669949632,1.92564219417835,3.772,15.1468702682687,10.8224665370087,20.934235578966,0.478498715249396,2.13763841179958
mp-41472,Ca5P3HO13,1.71661846663724,1.71661841420859,1.70769561983393,5.2396,14.6308384408205,11.7379162958311,15.1498941871165,0.577458855770102,1.7977321707604
mp-16855,K3Ta3Si2O13,1.96615071395862,1.96615060206486,2.11591806079536,2.9726,14.1907979020227,9.76977445864911,13.5602957924414,7.8830645069687,0.200598924143008
mp-650960,Hf(ClO4)4,1.51800518115058,1.53318973711671,1.48685893412926,5.2601,11.7260515781145,10.7767806685411,47.710473678282,4.91710013286355,0.224331659079308
mp-27229,Sb6S2O15,2.10152733030051,2.0220458624868,2.06290251829794,3.3081,13.2677739187608,8.95486516994187,17.9003897090418,1.34500600919432,0.799355807552239
mp-780075,Hf2N2O,2.66257315768037,2.65915837813395,2.61284911351574,2.1455,13.7142676930549,7.54923012594263,3.04358643217486,0.681817752393333,1.79522734130847
mp-761252,RbPH3O4F,1.48955476569343,1.50124730474363,1.45609343450206,5.8193,14.1964522523196,13.369746931214,48.8094395655306,0.534591114124727,1.89107635841436
mp-559053,NaY(SeO3)2,1.91017365702703,1.78834918010997,1.78501887665089,4.1814,12.5735258746574,9.46938331394848,6.76626368730781,3.64025810679266,0.422497848540772
mp-866665,LiMgB3(H9N)2,1.60265154977618,1.60270849501711,1.58916060862331,6.5113,14.4181650346486,12.4473873441716,3.16439885639109,0.845057390829451,1.49936737020775
mp-555880,ZnBi2B2O7,2.14076583025795,2.17776869295157,2.09798449469962,2.6792,14.7441025057739,9.64290232943533,6.22131418781876,0.49955914749924,2.16250270901476
mp-758337,Ca2P6O17,1.50805393802742,1.53856762282325,1.53946230548201,5.4224,13.4735425677876,12.2306077922569,42.5981164248204,0.57519769960848,1.76200789944628
mp-542931,Bi2B8O15,1.73654000817718,1.81314504383957,1.6725309623442,4.6496,14.1273780526773,11.1570835464952,736.427564701138,12.8510536041189,0.079172538256958
mp-26949,LiSn2(PO3)5,1.72569401401291,1.73032041830408,1.71579784939835,4.1798,14.9155081183319,11.8942939472182,7.45207331817719,4.86287399252331,0.339830553406687
mp-4779,Li2B4O7,1.60379807955989,1.58710226828645,1.59223592472975,5.7188,15.7780842141473,13.6570023214368,14.4369397135768,0.69715611935749,1.50366569932701
mp-6765,Li3AlGeO5,1.72096010703328,1.69471513535461,1.69430236085535,4.0577,14.751495989838,11.9074217241212,19.2843343867566,0.498021442753773,2.05980123304816
mp-6268,KTiPO5,1.87313076959405,1.99552480064769,1.86018664117341,3.0526,11.4731362013715,8.29439340046183,16.6527284520578,16.850337770125,0.119396210947543
mp-690977,NaP3(PbO3)4,1.96580082663529,1.96580100213628,1.94617758953288,3.4478,16.2209641277181,11.4561022941372,12.0891298227503,3.95667989175052,0.335456089807123
mp-560394,AsPbClO2,2.10651662229378,2.13888347976228,2.08843241930401,3.3366,13.8382712895382,9.15155194760283,8.63156922915561,0.980318002711167,1.13593094479042
mp-706621,KB5(H2O3)4,1.51187370504285,1.45808718189277,1.44279170014247,5.635,14.2738838298238,13.5708730823145,13.7885357123836,0.618176435999853,1.69018516005839
mp-559057,NbTl(BO3)2,2.01232440476182,1.91991641224299,2.00975229319436,3.4521,13.1589334436524,9.20328489262006,4.17296402414741,1.29140966677987,1.01398543811254
mp-24509,CdH4(BrO4)2,1.67825007373752,1.80163696398581,1.71309036247362,4.005,12.2217183152873,9.70631695226201,37.292519645079,6.79082100535607,0.174072628630781
mp-24468,H8S(NO2)2,1.52523782735677,1.50650230003143,1.51313128974323,5.0727,14.7753555946627,13.5551413693583,52.9752157218845,0.547233469927465,1.84625035916658
mp-703444,B5H12NO12,1.5115819329431,1.45010006551272,1.4403240225727,5.5022,14.3549539921234,13.6893513581536,20.1029175052648,0.622650095465482,1.65578248275315
mp-565994,WO3,2.4330358258768,2.5792138802356,2.5792138802356,1.2631,13.5652520021565,7.73047764498634,200.48569913578,28.8824581807314,0.039610978703462
mp-29085,Sr5Zr3F22,1.60327976036623,1.56624323462226,1.57721458273756,5.3647,13.1063211282005,11.440529851195,126.202087151337,1111.72242246795,0.008823304332202
mp-696735,H2O,1.43260163688305,1.43260163688305,1.41820529190946,5.469,14.3007213952241,14.1212209058951,45.5418689246497,0.553508189198147,1.82861581994808
mp-703459,H2O,1.39952352606164,1.39952348676255,1.39905138576108,5.5612,13.5956620378686,13.7904289318743,40.0355099746228,0.597887625402068,1.69753293081278
mp-639506,SiO2,1.4136512370454,1.41592502273249,1.3942565868591,5.6833,12.7788457619522,12.8551120665468,17.7695371800037,0.598665853825013,1.72665697297694
mp-546794,SiO2,1.47865487183453,1.4793547985524,1.47877283583382,5.7034,14.3178928286505,13.5218020280584,4.15407723976907,0.559705563012423,2.0273810217269
mp-546757,Sn3PO4F3,1.86531898612543,1.86517017990316,1.86463055858258,3.8857,14.8517304428567,10.9745852982152,4.19332122960693,1.08912824037025,1.15663997882513
mp-3519,ZrSO,2.78075968397127,2.78075968397127,2.78075968397127,3.0116,12.7173669350217,6.73497114717895,1.18737920090638,1.70475505260656,1.42878547203733
mp-7787,HfSO,2.65481284086091,2.65481284086091,2.65481284086091,3.5563,13.2263097235541,7.25939921838743,1.20310269027657,1.69301895872925,1.42184508376367
mp-10796,HgSeO4,2.09294010186627,2.09213875734857,2.20229126593192,1.0094,12.9834401305345,8.52449024201726,1.90698313941156,0.288880964729751,3.98602189870351
mp-28264,RbH3O2,1.56795094629902,1.52173555192747,1.50709761793986,4.3162,13.7163002261044,12.417261372323,12.5353964531278,0.47065484162849,2.20447337571369
mp-9844,BaAl2B2O7,1.59894606225476,1.60295590706669,1.53403438357815,4.6853,13.3303971061255,11.6656343994646,11.4570156869369,0.550312444876414,1.90443229330063
mp-753798,Rb2SnO3,1.73994005931239,1.76408405411987,1.8627011757123,2.1213,13.0960557741783,10.0690129355845,26.844917041319,0.414609537457865,2.44915885445678
mp-4236,BaZnO2,2.0449490824957,2.04494892845763,2.05206083730478,2.2871,14.0711630598458,9.55720527332052,5.03359490321081,0.374612494995798,2.86809028078545
mp-570136,CuI,2.41239612833382,2.41239588169106,2.17610607048462,1.6308,11.6596843959544,7.09091264237937,3.95084754397357,0.243586575347184,4.35842680114758
mp-15349,Li2GeO3,1.76380501189899,1.71838743303133,1.71539178906744,3.6933,14.420429250004,11.4423497501105,4.91668436489051,0.547673476840327,2.02929457360936
mp-15573,Tl3AsO4,1.98657904448829,1.98657914768076,2.03416242714293,2.7599,14.0047893582997,9.69986372800646,3.19196333777789,0.473996294507908,2.42300794040757
mp-715584,MoO3,2.36424580363379,2.23550801385278,2.73717946799255,1.8984,12.4801462921564,7.30761560221243,4.4265072442293,0.955238825110564,1.27277037232477
mp-862539,BH6CN3F4,1.44638548457871,1.44624868193544,1.44611110914757,5.7037,14.5180602517533,14.0999046545739,6.67374731435781,5.44728442749981,0.333418564286258
mp-306,B2O3,1.65037959269981,1.65037968055839,1.64752706199322,6.4783,15.6928733105003,13.096076670036,13.1651534965286,2.04388867175766,0.565221535287241
mp-8624,K2Sn2O3,2.23051362694784,2.23051338485112,2.23051360228984,1.4051,14.8065431650096,9.34690201372375,0.274529301050942,0.955631811072551,4.68902654691938
mp-20694,K2Pb2O3,2.23424666722365,2.23424672988459,2.23424670750569,1.8575,14.5083052477136,9.14586903049975,0.390474964766098,0.482319117266811,4.6342997670322
mp-3338,NaGaO2,1.76118508113145,1.77246047064526,1.74581202309985,2.8582,16.3679164043895,12.7878176643647,11.1469820606724,0.363930788594024,2.83748559291081
mp-7688,Li2CdGeO4,1.88834400997276,1.81614754631886,1.90987728139794,2.5716,15.1173235323748,11.1350533926505,9.0377496978191,0.368880341934381,2.82155319579382
mp-643759,GaH3NF3,1.53024355577797,1.53497067724436,1.53511344206218,5.4106,16.7246030270655,15.1271197164353,7.82802829393409,0.578889076289948,1.85519274678313
mp-8184,Li2ZnGeO4,1.81999694230512,1.81949019233411,1.78570546843537,3.1233,15.5100696655216,11.8010113322551,6.04966484613094,0.434453769001061,2.46703929195512
mp-9066,NaLi2AsO4,1.64703102885161,1.64654385304492,1.63254061511498,3.9846,13.3789717085633,11.2181867260896,8.15574796967042,0.554690947489037,1.92541860763271
mp-5709,Tl3PO4,1.99982729004282,1.99982739505188,2.03931793499689,2.8114,14.7713983337434,10.1832676860595,1.93409704029329,0.499741684713153,2.51807093410235
mp-761033,Hf3N2O3,2.43539752401944,2.18985192193445,2.31887299997218,3.3556,13.5578695329826,8.30041874862518,10.0711693942552,3.66952017704186,0.371808528547561
mp-12403,LiBF4,1.28759546442196,1.28759541005706,1.2910736113793,8.2892,13.3756362141514,15.3557702444649,75.2820966304937,0.765799632424071,1.31910797245518
mp-565932,CdTeMoO6,2.25056908580919,2.25056908580919,1.97734480301236,3.3125,13.829531150574,8.97109359975875,3.04743757022042,6.66195412258441,0.478250647359109
mp-9212,NaAlO2,1.62375340184401,1.62531049341349,1.6121110073441,3.8519,13.5474636688463,11.521630661074,5.08328207044812,0.426846474765098,2.53948599602027