Cr3Pd_fcc                               
           1
     1.571539    1.990356   -3.982094
     0.026931   -5.984485   -1.985681
    -6.359452    2.025744   -1.990777
   Cr   Pd
  12   4
Direct configuration=     1
   0.54172395  0.88729004  0.08260366
   0.23295159  0.18376959  0.33199238
   0.98326991  0.49292940  0.51388458
   0.45213647  0.62254887  0.42434974
   0.47965731  0.38200976  0.63008277
   0.74369034  0.80509611  0.69594488
   0.00517670  0.25333851  0.74335072
   0.20411234  0.93267413  0.58836714
   0.78782288  0.56399241  0.90988039
   0.25458424  0.69795262  0.81502561
   0.52542249  0.11205178  0.85215863
   0.03841729  0.01235213  0.98051745
   0.74979792  0.31506883  0.18841669
   0.28845558  0.43423518  0.05232733
   0.00762331  0.75518758  0.24409785
   0.70515768  0.04950307  0.44700018
